ID,Ref,year,PCE_max(%),PCE_ave(%),Jsc(mA/cm2),FF,Voc(V),Nickname(n),-HOMO_n(eV),-LUMO_n(eV),Eg_n(eV),n(SMILES),M (g/mol),Nickname(p),-HOMO_p(eV),-LUMO_p(eV),Eg_p(eV),p(SMILES),Mw (kg/mol),Mn(kg/mol),PDI,p/n ratio (p),p/n ratio (n),Solvent,Additive,TA (oC),thick (nm),,Journal,DOI
486,220,2018,4.31,4.31,10.16,0.5221,0.88,IEICO,5.32,4,1.32,CCCCCCC(C=C1)=CC=C1C(C2=C3SC(C4=C(OCC(CC)CCCC)C(C=C5C(C(C=CC=C6)=C6/C5=C(C#N)/C#N)=O)=CS4)=C2)(C7=CC=C(CCCCCC)C=C7)C8=C3C=C(C(C9=C%10SC(C%11=C(C(/C=C%12\C(C%13=C(C%12=O)C=CC=C%13)=C(C#N)\C#N)=CS%11)OCC(CCCC)CC)=C9)(C%14=CC=C(CCCCCC)C=C%14)C%15=CC=C(CCCCCC)C=C%15)C%10=C8,1736.46,PBDB-T,5.31,3.12,2.19,CC(SC1=C2C3=CC=C(CC(CC)CCCC)S3)=CC1=C(C4=CC=C(CC(CC)CCCC)S4)C5=C2C=C(S5)C6=CC=C(C7=C8C(C(C9=C(CC(CC)CCCC)SC(CC(CC)CCCC)=C9C8=O)=O)=C(C%10=CC=C(C)S%10)S7)S6,117,58.5,2,1,1,CB,DIO,100,,,Macromol. Rapid Commun.,10.1002/marc.201700492
487,221,2018,5.3,5.1,11.514,0.452,1.015,ITIC,5.4,3.82,1.58,CCCCCCC(C=C1)=CC=C1C2(C3=CC=C(CCCCCC)C=C3)C4=CC5=C(C(C6=C5SC7=C6SC(/C=C8C(C(C=CC=C9)=C9C\8=C(C#N)\C#N)=O)=C7)(C%10=CC=C(CCCCCC)C=C%10)C%11=CC=C(CCCCCC)C=C%11)C=C4C%12=C2C(SC(/C=C%13C(C(C=CC=C%14)=C%14C\%13=C(C#N)/C#N)=O)=C%15)=C%15S%12,1427.96,PDRCNBDT,5.16,3.42,1.74,CC(SC1=C2C3=CC=C(CC(CC)CCCC)S3)=CC1=C(C4=CC=C(CC(CC)CCCC)S4)C5=C2C=C(S5)C6=C(CCCCCCCC)C=C(C7=C(/C=C8C(N(CC)/C(S\8)=C(C#N)\C#N)=O)C=C(C9=CC(CCCCCCCC)=C(C)S9)S7)S6,88.352,35.2,2.51,1,1.5,CB,NA,NA,,,Macromol. Rapid Commun.,10.1002/marc.201700706
488,222,2016,0.05,0.05,0.34,0.35,0.41,SiCPDT-BT1,5.6,3.8,1.8,CCCCCC[Si]1(CCCCCC)C2=C(SC=C2)C3=C1C=C(C(C4=NSN=C45)=CC=C5/C=C(C#N)/C#N)S3,572.88,P3HT,5,3.1,1.9,CC1=CC(CCCCCC)=C(C)S1,21.1,11.6,1.82,1,0.8,DCB,NA,NA,80,,Macromolecules,10.1021/acs.macromol.6b00984
489,222,2016,0.17,0.14,0.74,0.46,0.41,SiCPDT-BT2,5.5,3.9,1.6,CCCCCC[Si]1(CCCCCC)C2=C(SC(C3=CC([Si]4(CCCCCC)CCCCCC)=C(S3)C5=C4C=C(C(C6=NSN=C67)=CC=C7/C=C(C#N)/C#N)S5)=C2)C8=C1C=C(C(C9=NSN=C9%10)=CC=C%10/C=C(C#N)/C#N)S8,1143.74,P3HT,5,3.1,1.9,CC1=CC(CCCCCC)=C(C)S1,21.1,11.6,1.82,1,0.8,DCB,NA,NA,80,,Macromolecules,10.1021/acs.macromol.6b00984
490,223,2017,6.4,6.1,10.6,0.58,1.04,ITIC,5.61,4.02,1.59,CCCCCCC(C=C1)=CC=C1C2(C3=CC=C(CCCCCC)C=C3)C4=CC5=C(C(C6=C5SC7=C6SC(/C=C8C(C(C=CC=C9)=C9C\8=C(C#N)\C#N)=O)=C7)(C%10=CC=C(CCCCCC)C=C%10)C%11=CC=C(CCCCCC)C=C%11)C=C4C%12=C2C(SC(/C=C%13C(C(C=CC=C%14)=C%14C\%13=C(C#N)/C#N)=O)=C%15)=C%15S%12,1427.96,PBDTTPD-HT,5.6,3.75,1.85,CC(SC1=C2C3=CC=C(CC(CC)CCCC)S3)=CC1=C(C4=CC=C(CC(CC)CCCC)S4)C5=C2C=C(S5)C6=C(CCCCCC)C=C(C7=C8C(C(N(CCCCCCCC)C8=O)=O)=C(C9=CC(CCCCCC)=C(C)S9)S7)S6,350,129.6296296,2.7,1,1,CF,DIO,150,65,,Mater. Chem. Front.,10.1039/c7qm00025a
491,223,2017,8.8,8.3,14.1,0.66,0.94,F-ITIC,5.65,4.09,1.56,CCCCCCC(C=C1)=CC=C1C2(C3=CC=C(CCCCCC)C=C3)C4=CC5=C(C(C6=C5SC7=C6SC(/C=C8C(C(C=CC(F)=C9)=C9C\8=C(C#N)\C#N)=O)=C7)(C%10=CC=C(CCCCCC)C=C%10)C%11=CC=C(CCCCCC)C=C%11)C=C4C%12=C2C(SC(/C=C%13C(C(C=CC(F)=C%14)=C%14C\%13=C(C#N)/C#N)=O)=C%15)=C%15S%12,1463.94,PBDTTPD-HT,5.6,3.75,1.85,CC(SC1=C2C3=CC=C(CC(CC)CCCC)S3)=CC1=C(C4=CC=C(CC(CC)CCCC)S4)C5=C2C=C(S5)C6=C(CCCCCC)C=C(C7=C8C(C(N(CCCCCCCC)C8=O)=O)=C(C9=CC(CCCCCC)=C(C)S9)S7)S6,350,129.6296296,2.7,1,1,CF,DIO,150,65,,Mater. Chem. Front.,10.1039/c7qm00025a
492,223,2017,9.5,9,15.6,0.65,0.94,Cl-ITIC,5.7,4.14,1.56,CCCCCCC(C=C1)=CC=C1C2(C3=CC=C(CCCCCC)C=C3)C4=CC5=C(C(C6=C5SC7=C6SC(/C=C8C(C(C=CC(Cl)=C9)=C9C\8=C(C#N)\C#N)=O)=C7)(C%10=CC=C(CCCCCC)C=C%10)C%11=CC=C(CCCCCC)C=C%11)C=C4C%12=C2C(SC(/C=C%13C(C(C=CC(Cl)=C%14)=C%14C\%13=C(C#N)/C#N)=O)=C%15)=C%15S%12,1496.84,PBDTTPD-HT,5.6,3.75,1.85,CC(SC1=C2C3=CC=C(CC(CC)CCCC)S3)=CC1=C(C4=CC=C(CC(CC)CCCC)S4)C5=C2C=C(S5)C6=C(CCCCCC)C=C(C7=C8C(C(N(CCCCCCCC)C8=O)=O)=C(C9=CC(CCCCCC)=C(C)S9)S7)S6,350,129.6296296,2.7,1,1,CF,DIO,150,65,,Mater. Chem. Front.,10.1039/c7qm00025a
493,223,2017,9.4,9.1,15.4,0.66,0.93,Br-ITIC,5.73,4.2,1.53,CCCCCCC(C=C1)=CC=C1C2(C3=CC=C(CCCCCC)C=C3)C4=CC5=C(C(C6=C5SC7=C6SC(/C=C8C(C(C=CC(Br)=C9)=C9C\8=C(C#N)\C#N)=O)=C7)(C%10=CC=C(CCCCCC)C=C%10)C%11=CC=C(CCCCCC)C=C%11)C=C4C%12=C2C(SC(/C=C%13C(C(C=CC(Br)=C%14)=C%14C\%13=C(C#N)/C#N)=O)=C%15)=C%15S%12,1585.75,PBDTTPD-HT,5.6,3.75,1.85,CC(SC1=C2C3=CC=C(CC(CC)CCCC)S3)=CC1=C(C4=CC=C(CC(CC)CCCC)S4)C5=C2C=C(S5)C6=C(CCCCCC)C=C(C7=C8C(C(N(CCCCCCCC)C8=O)=O)=C(C9=CC(CCCCCC)=C(C)S9)S7)S6,350,129.6296296,2.7,1,1,CF,DIO,150,65,,Mater. Chem. Front.,10.1039/c7qm00025a
494,223,2017,8.9,8.3,14.5,0.65,0.95,I-ITIC,5.68,4.14,1.54,CCCCCCC(C=C1)=CC=C1C2(C3=CC=C(CCCCCC)C=C3)C4=CC5=C(C(C6=C5SC7=C6SC(/C=C8C(C(C=CC(I)=C9)=C9C\8=C(C#N)\C#N)=O)=C7)(C%10=CC=C(CCCCCC)C=C%10)C%11=CC=C(CCCCCC)C=C%11)C=C4C%12=C2C(SC(/C=C%13C(C(C=CC(I)=C%14)=C%14C\%13=C(C#N)/C#N)=O)=C%15)=C%15S%12,1679.75,PBDTTPD-HT,5.6,3.75,1.85,CC(SC1=C2C3=CC=C(CC(CC)CCCC)S3)=CC1=C(C4=CC=C(CC(CC)CCCC)S4)C5=C2C=C(S5)C6=C(CCCCCC)C=C(C7=C8C(C(N(CCCCCCCC)C8=O)=O)=C(C9=CC(CCCCCC)=C(C)S9)S7)S6,350,129.6296296,2.7,1,1,CF,DIO,150,65,,Mater. Chem. Front.,10.1039/c7qm00025a
495,224,2017,5.42,5.42,7.74,0.6,1.17,SF-DPP4 (H1),5.51,3.84,1.67,O=C(C1=C(C2=CC=C(C3=CC4=C(C=C3)C5=C(C=C(C(S6)=CC=C6C(N7CC(CC)CCCC)=C(C(C7=O)=C8C9=CC=CS9)C(N8CC(CC)CCCC)=O)C=C5)C4%10C(C=C(C(S%11)=CC=C%11C(N%12CC(CC)CCCC)=C(C(C%12=O)=C%13C%14=CC=CS%14)C(N%13CC(CC)CCCC)=O)C=C%15)=C%15C%16=C%10C=C(C(S%17)=CC=C%17C(N%18CC(CC)CCCC)=C(C(C%18=O)=C%19C%20=CC=CS%20)C(N%19CC(CC)CCCC)=O)C=C%16)S2)N%21CC(CC)CCCC)N(CC(CC)CCCC)C(C%22=CC=CS%22)=C1C%21=O,2407.47,P3HT,5.2,3.2,2,CC1=CC(CCCCCC)=C(C)S1,21.1,11.6,1.82,1,1,DCB,NA,NA,68,,Mater. Chem. Front.,10.1039/c7qm00084g
496,225,2018,8.43,8.35,17.45,0.59,0.82,COi6IC,5.57,3.86,1.71,CCCCCCC(C=C1)=CC=C1C2(C3=C(C(SC4=C5SC6=C4OC(C7=C6SC(/C=C8C(C(C=CC=C9)=C9C\8=C(C#N)\C#N)=O)=C7)(C%10=CC=C(CCCCCC)C=C%10)C%11=CC=C(CCCCCC)C=C%11)=C5O2)SC(/C=C%12C(C(C=CC=C%13)=C%13C\%12=C(C#N)\C#N)=O)=C3)C%14=CC=C(CCCCCC)C=C%14,1409.89,FTAZ,5.36,3.05,2.31,CC1=CC2=C(C(CCC(CCCCCC)CCCC)=C(C=C(C3=CC=C(C4=C(F)C(F)=C(C5=CC=C(C)S5)C6=NN(CCC(CCCCCC)CCCC)N=C64)S3)S7)C7=C2CCC(CCCCCC)CCCC)S1,99.592,42.2,2.36,1,1.6,CF,DIO,NA,85,,Mater. Chem. Front.,10.1039/c8qm00004b
497,225,2018,9.12,9.02,19.27,0.626,0.75,COi6FIC,5.6,3.93,1.67,CCCCCCC(C=C1)=CC=C1C2(C3=C(C(SC4=C5SC6=C4OC(C7=C6SC(/C=C8C(C(C=CC(F)=C9)=C9C\8=C(C#N)\C#N)=O)=C7)(C%10=CC=C(CCCCCC)C=C%10)C%11=CC=C(CCCCCC)C=C%11)=C5O2)SC(/C=C%12C(C(C=CC(F)=C%13)=C%13C\%12=C(C#N)\C#N)=O)=C3)C%14=CC=C(CCCCCC)C=C%14,1445.87,FTAZ,5.36,3.05,2.31,CC1=CC2=C(C(CCC(CCCCCC)CCCC)=C(C=C(C3=CC=C(C4=C(F)C(F)=C(C5=CC=C(C)S5)C6=NN(CCC(CCCCCC)CCCC)N=C64)S3)S7)C7=C2CCC(CCCCCC)CCCC)S1,99.592,42.2,2.36,1,1.6,CF,DIO,NA,85,,Mater. Chem. Front.,10.1039/c8qm00004b
498,225,2018,8.25,8.11,20.39,0.589,0.67,COi6DFIC,5.64,4.04,1.6,CCCCCCC(C=C1)=CC=C1C2(C3=C(C(SC4=C5SC6=C4OC(C7=C6SC(/C=C8C(C(C=C(F)C(F)=C9)=C9C\8=C(C#N)\C#N)=O)=C7)(C%10=CC=C(CCCCCC)C=C%10)C%11=CC=C(CCCCCC)C=C%11)=C5O2)SC(/C=C%12C(C(C=C(F)C(F)=C%13)=C%13C\%12=C(C#N)\C#N)=O)=C3)C%14=CC=C(CCCCCC)C=C%14,1481.86,FTAZ,5.36,3.05,2.31,CC1=CC2=C(C(CCC(CCCCCC)CCCC)=C(C=C(C3=CC=C(C4=C(F)C(F)=C(C5=CC=C(C)S5)C6=NN(CCC(CCCCCC)CCCC)N=C64)S3)S7)C7=C2CCC(CCCCCC)CCCC)S1,99.592,42.2,2.36,1,1.6,CF,DIO,NA,85,,Mater. Chem. Front.,10.1039/c8qm00004b
499,226,2018,9.52,9.42,19.83,0.57,0.84,"NNFA[0,6]",5.27,3.86,1.41,O=C(C(C=CC=C1)=C1C/2=C(C#N)/C#N)C2=C/C3=CC(SC4=C5C(C6=CC=C(CCCCCC)C=C6)(C7=CC=C(CCCCCC)C=C7)C8=C4SC9=C8C=C%10SC%11=C(C%10=C9)C(C%12=CC=C(CCCCCC)C=C%12)(C%13=CC=C(CCCCCC)C=C%13)C%14=C%11SC%15=C%14SC(/C=C%16C(C(C=CC=C%17)=C%17C\%16=C(C#N)\C#N)=O)=C%15)=C5S3,1540.12,FTAZ,5.38,3.17,2.21,CC1=CC2=C(S1)C(CCC(CCCC)CCCCCC)=C3C=C(SC3=C2CCC(CCCC)CCCCCC)C4=CC=C(S4)C5=C(C(F)=C(C6=NN(N=C65)CC(CCCC)CCCCCC)C7=CC=C(S7)C)F,99.592,42.2,2.36,1,1.4,CF,NA,NA,80,,Mater. Chem. Front.,10.1039/c8qm00238j
500,226,2018,7.56,7.25,14.72,0.591,0.87,"NNFA[6,3]",5.21,3.83,1.38,O=C(C(C=CC=C1)=C1C/2=C(C#N)/C#N)C2=C/C3=CC(SC4=C5C(C6=CC=C(CCC)C=C6)(C7=CC=C(CCC)C=C7)C8=C4SC9=C8C(CCCCCC)=C%10SC%11=C(C%10=C9CCCCCC)C(C%12=CC=C(CCC)C=C%12)(C%13=CC=C(CCC)C=C%13)C%14=C%11SC%15=C%14SC(/C=C%16C(C(C=CC=C%17)=C%17C\%16=C(C#N)\C#N)=O)=C%15)=C5S3,1540.12,FTAZ,5.38,3.17,2.21,CC1=CC2=C(S1)C(CCC(CCCC)CCCCCC)=C3C=C(SC3=C2CCC(CCCC)CCCCCC)C4=CC=C(S4)C5=C(C(F)=C(C6=NN(N=C65)CC(CCCC)CCCCCC)C7=CC=C(S7)C)F,99.592,42.2,2.36,1,1.4,CF,NA,NA,80,,Mater. Chem. Front.,10.1039/c8qm00238j
501,226,2018,10.56,10.32,19.86,0.613,0.87,"NNFA[6,6]",5.23,3.84,1.39,O=C(C(C=CC=C1)=C1C/2=C(C#N)/C#N)C2=C/C3=CC(SC4=C5C(C6=CC=C(CCCCCC)C=C6)(C7=CC=C(CCCCCC)C=C7)C8=C4SC9=C8C(CCCCCC)=C%10SC%11=C(C%10=C9CCCCCC)C(C%12=CC=C(CCCCCC)C=C%12)(C%13=CC=C(CCCCCC)C=C%13)C%14=C%11SC%15=C%14SC(/C=C%16C(C(C=CC=C%17)=C%17C\%16=C(C#N)\C#N)=O)=C%15)=C5S3,1708.44,FTAZ,5.38,3.17,2.21,CC1=CC2=C(S1)C(CCC(CCCC)CCCCCC)=C3C=C(SC3=C2CCC(CCCC)CCCCCC)C4=CC=C(S4)C5=C(C(F)=C(C6=NN(N=C65)CC(CCCC)CCCCCC)C7=CC=C(S7)C)F,99.592,42.2,2.36,1,1.4,CF,NA,NA,80,,Mater. Chem. Front.,10.1039/c8qm00238j
502,226,2018,10.81,10.58,19.33,0.647,0.86,"NNFA[12,3]",5.23,3.84,1.39,O=C(C(C=CC=C1)=C1C/2=C(C#N)/C#N)C2=C/C3=CC(SC4=C5C(C6=CC=C(CCC)C=C6)(C7=CC=C(CCC)C=C7)C8=C4SC9=C8C(CCCCCCCCCCCC)=C%10SC%11=C(C%10=C9CCCCCCCCCCCC)C(C%12=CC=C(CCC)C=C%12)(C%13=CC=C(CCC)C=C%13)C%14=C%11SC%15=C%14SC(/C=C%16C(C(C=CC=C%17)=C%17C\%16=C(C#N)\C#N)=O)=C%15)=C5S3,1708.44,FTAZ,5.38,3.17,2.21,CC1=CC2=C(S1)C(CCC(CCCC)CCCCCC)=C3C=C(SC3=C2CCC(CCCC)CCCCCC)C4=CC=C(S4)C5=C(C(F)=C(C6=NN(N=C65)CC(CCCC)CCCCCC)C7=CC=C(S7)C)F,99.592,42.2,2.36,1,1.4,CF,NA,NA,80,,Mater. Chem. Front.,10.1039/c8qm00238j
503,226,2018,9.54,9.31,18.85,0.587,0.86,"NNFA[12,6]",5.21,3.83,1.38,O=C(C(C=CC=C1)=C1C/2=C(C#N)/C#N)C2=C/C3=CC(SC4=C5C(C6=CC=C(CCCCCC)C=C6)(C7=CC=C(CCCCCC)C=C7)C8=C4SC9=C8C(CCCCCCCCCCCC)=C%10SC%11=C(C%10=C9CCCCCCCCCCCC)C(C%12=CC=C(CCCCCC)C=C%12)(C%13=CC=C(CCCCCC)C=C%13)C%14=C%11SC%15=C%14SC(/C=C%16C(C(C=CC=C%17)=C%17C\%16=C(C#N)\C#N)=O)=C%15)=C5S3,1876.77,FTAZ,5.38,3.17,2.21,CC1=CC2=C(S1)C(CCC(CCCC)CCCCCC)=C3C=C(SC3=C2CCC(CCCC)CCCCCC)C4=CC=C(S4)C5=C(C(F)=C(C6=NN(N=C65)CC(CCCC)CCCCCC)C7=CC=C(S7)C)F,99.592,42.2,2.36,1,1.4,CF,NA,NA,80,,Mater. Chem. Front.,10.1039/c8qm00238j
504,227,2017,10.8,10.5,18.1,0.59,1.01,ITIC,5.6,3.85,1.75,CCCCCCC(C=C1)=CC=C1C2(C3=CC=C(CCCCCC)C=C3)C4=CC5=C(C(C6=C5SC7=C6SC(/C=C8C(C(C=CC=C9)=C9C\8=C(C#N)\C#N)=O)=C7)(C%10=CC=C(CCCCCC)C=C%10)C%11=CC=C(CCCCCC)C=C%11)C=C4C%12=C2C(SC(/C=C%13C(C(C=CC=C%14)=C%14C\%13=C(C#N)/C#N)=O)=C%15)=C%15S%12,1427.96,PBPD-Th,5.42,3.36,2.06,CC(SC1=C2C3=CC=C(OCC(CC)CCCC)C=C3)=CC1=C(C4=CC=C(OCC(CC)CCCC)C=C4)C5=C2C=C(S5)C6=CC=C(C7=C8C(C(C9=C(CC(CC)CCCC)SC(CC(CC)CCCC)=C9C8=O)=O)=C(C%10=CC=C(C)S%10)S7)S6,107,42,2.547619048,1,1.25,DCB,DIO,NA,,,Nano Energy,10.1016/j.nanoen.2017.07.047
505,228,2018,8.88,8.67,17.08,0.6924,0.75,DTDP-IC,5.46,4.03,1.43,O=C(C(C=CC=C1)=C1C/2=C(C#N)\C#N)C2=C/C(S3)=CC4=C3C5=CC(C(CCCCCCCC)(CCCCCCCC)OC6=C7SC(/C=C8C(C(C=CC=C9)=C9C\8=C(C#N)\C#N)=O)=C6)=C7C=C5C(CCCCCCCC)(CCCCCCCC)O4,1155.61,PBDB-T,5.21,3.41,1.8,CC(SC1=C2C3=CC=C(CC(CC)CCCC)S3)=CC1=C(C4=CC=C(CC(CC)CCCC)S4)C5=C2C=C(S5)C6=CC=C(C7=C8C(C(C9=C(CC(CC)CCCC)SC(CC(CC)CCCC)=C9C8=O)=O)=C(C%10=CC=C(C)S%10)S7)S6,117,58.5,2,1,1.2,CB,CBA,NA,,,Nano Energy,10.1016/j.nanoen.2017.12.030
506,228,2018,9.39,9.25,16.82,0.6995,0.8,DTDP-MIC,5.54,3.95,1.59,O=C(C(C=CC(C)=C1)=C1C/2=C(C#N)\C#N)C2=C/C(S3)=CC4=C3C5=CC(C(CCCCCCCC)(CCCCCCCC)OC6=C7SC(/C=C8C(C(C=CC(C)=C9)=C9C\8=C(C#N)\C#N)=O)=C6)=C7C=C5C(CCCCCCCC)(CCCCCCCC)O4,1183.67,PBDB-T,5.21,3.41,1.8,CC(SC1=C2C3=CC=C(CC(CC)CCCC)S3)=CC1=C(C4=CC=C(CC(CC)CCCC)S4)C5=C2C=C(S5)C6=CC=C(C7=C8C(C(C9=C(CC(CC)CCCC)SC(CC(CC)CCCC)=C9C8=O)=O)=C(C%10=CC=C(C)S%10)S7)S6,117,58.5,2,1,1.2,CB,CBA,NA,,,Nano Energy,10.1016/j.nanoen.2017.12.030
507,229,2015,6.4,6.3,13.2,0.63,0.77,hPDI3,6.23,3.86,2.37,O=C(N(C(CCCCC)CCCCC)C1=O)C2=CC3=C(C4=C5C=CC1C42)C6=C(C7=C3C8=CC9C%10C%11=C8C%12=C7C=C(C(N%13C(CCCCC)CCCCC)=O)C%14=C%12C(C%11=C(C%15=C%16C(C=C%17C(N(C(CCCCC)CCCCC)C%18=O)=O)=C%19C%20=C%17C%18=CC=C%20C%21=CC=C(C%22=O)C%23C%21=C%19C%15=CC%23C(N%22C(CCCCC)CCCCC)=O)C=C%10C(N(C(CCCCC)CCCCC)C9=O)=O)=C%16C=C%14C%13=O)C=C%24C%25=C6C5=CC=C%25C(N(C(CCCCC)CCCCC)C%24=O)=O,2142.87,PTB7,5.15,3.43,1.72,CC1=C(C(F)=C(C(OCC(CC)CCCC)=O)S2)C2=C(C3=CC4=C(OCC(CCCC)CC)C(SC(C)=C5)=C5C(OCC(CCCC)CC)=C4S3)S1,97.5,46.4,2.1,1,1.5,CB,DIO,80,100,,Nature Commun.,10.1038/ncomms9242
508,229,2015,7.9,7.7,14.5,0.67,0.81,hPDI3,6.23,3.86,2.37,O=C(N(C(CCCCC)CCCCC)C1=O)C2=CC3=C(C4=C5C=CC1C42)C6=C(C7=C3C8=CC9C%10C%11=C8C%12=C7C=C(C(N%13C(CCCCC)CCCCC)=O)C%14=C%12C(C%11=C(C%15=C%16C(C=C%17C(N(C(CCCCC)CCCCC)C%18=O)=O)=C%19C%20=C%17C%18=CC=C%20C%21=CC=C(C%22=O)C%23C%21=C%19C%15=CC%23C(N%22C(CCCCC)CCCCC)=O)C=C%10C(N(C(CCCCC)CCCCC)C9=O)=O)=C%16C=C%14C%13=O)C=C%24C%25=C6C5=CC=C%25C(N(C(CCCCC)CCCCC)C%24=O)=O,2142.87,PTB7-Th,5.22,3.64,1.58,O=C(OCC(CC)CCCC)C1=C(F)C2=C(C)SC(C3=CC4=C(C(C5=CC=C(CC(CC)CCCC)S5)=C(C=C(C)S6)C6=C4C7=CC=C(CC(CC)CCCC)S7)S3)=C2S1,124,72.9,1.7,1,1.5,CB,DIO,80,100,,Nature Commun.,10.1038/ncomms9242
509,229,2015,6.5,6.4,12.9,0.64,0.79,hPDI4,6.26,3.91,2.35,O=C(N(C(CCCCC)CCCCC)C1=O)C2=CC3=C(C4=C5C=CC1C42)C6=C(C7=C3C8=CC9C%10C%11=C8C%12=C7C=C(C(N%13C(CCCCC)CCCCC)=O)C%14=C%12C(C%11=C(C%15=C%16C(C=C%17C(N(C(CCCCC)CCCCC)C%18=O)=O)=C%19C%20=C%17C%18=CC%21=C(C(C=C%22C(N(C(CCCC)CCCCC)C%23=O)=O)=C%24C%25=C%22C%23=CC=C%25C%26=CC=C(C%27=O)C%28C%26=C%24C%29=CC%28C(N%27C(CCCCC)CCCCC)=O)C%29=C%30C(C%31=C%19C%15=CC%32C%31C(C(N(C(CCCCC)CCCCC)C%32=O)=O)=C%30)=C%21%20)C=C%10C(N(C(CCCCC)CCCCC)C9=O)=O)=C%16C=C%14C%13=O)C=C%33C%34=C6C5=CC=C%34C(N(C(CCCCC)CCCCC)C%33=O)=O,2849.8,PTB7,5.15,3.43,1.72,CC1=C(C(F)=C(C(OCC(CC)CCCC)=O)S2)C2=C(C3=CC4=C(OCC(CCCC)CC)C(SC(C)=C5)=C5C(OCC(CCCC)CC)=C4S3)S1,97.5,46.4,2.1,1,1,CB,DIO,80,100,,Nature Commun.,10.1038/ncomms9242
510,229,2015,8.3,8.1,15.2,0.68,0.8,hPDI4,6.26,3.91,2.35,O=C(N(C(CCCCC)CCCCC)C1=O)C2=CC3=C(C4=C5C=CC1C42)C6=C(C7=C3C8=CC9C%10C%11=C8C%12=C7C=C(C(N%13C(CCCCC)CCCCC)=O)C%14=C%12C(C%11=C(C%15=C%16C(C=C%17C(N(C(CCCCC)CCCCC)C%18=O)=O)=C%19C%20=C%17C%18=CC%21=C(C(C=C%22C(N(C(CCCC)CCCCC)C%23=O)=O)=C%24C%25=C%22C%23=CC=C%25C%26=CC=C(C%27=O)C%28C%26=C%24C%29=CC%28C(N%27C(CCCCC)CCCCC)=O)C%29=C%30C(C%31=C%19C%15=CC%32C%31C(C(N(C(CCCCC)CCCCC)C%32=O)=O)=C%30)=C%21%20)C=C%10C(N(C(CCCCC)CCCCC)C9=O)=O)=C%16C=C%14C%13=O)C=C%33C%34=C6C5=CC=C%34C(N(C(CCCCC)CCCCC)C%33=O)=O,2849.8,PTB7-Th,5.22,3.64,1.58,O=C(OCC(CC)CCCC)C1=C(F)C2=C(C)SC(C3=CC4=C(C(C5=CC=C(CC(CC)CCCC)S5)=C(C=C(C)S6)C6=C4C7=CC=C(CC(CC)CCCC)S7)S3)=C2S1,124,72.9,1.7,1,1,CB,DIO,80,100,,Nature Commun.,10.1038/ncomms9242
511,230,2016,6.3,6.3,13.9,0.6,0.72,O-IDTBR,5.51,3.88,1.63,O=C(/C(S1)=C/C(C2=NSN=C32)=CC=C3C(S4)=CC5=C4C6=CC(C(CCCCCCCC)(CCCCCCCC)C7=C8SC(C9=CC=C(/C=C%10SC(N(CC)C\%10=O)=S)C%11=NSN=C9%11)=C7)=C8C=C6C5(CCCCCCCC)CCCCCCCC)N(CC)C1=S,1326.02,P3HT,5,3.1,1.9,CC1=CC(CCCCCC)=C(C)S1,21.1,11.6,1.82,1,1,CB,NA,130,75,,Nature Commun.,10.1038/ncomms11585
512,230,2016,6,6,12.1,0.62,0.76,EH-IDTBR,5.51,3.88,1.63,O=C(/C(S1)=C/C(C2=NSN=C32)=CC=C3C(S4)=CC5=C4C6=CC(C(CC(CC)CCCC)(CC(CC)CCCC)C7=C8SC(C9=CC=C(/C=C%10SC(N(CC)C\%10=O)=S)C%11=NSN=C9%11)=C7)=C8C=C6C5(CC(CC)CCCC)CC(CC)CCCC)N(CC)C1=S,1326.02,P3HT,5,3.1,1.9,CC1=CC(CCCCCC)=C(C)S1,21.1,11.6,1.82,1,1,CB,NA,130,75,,Nature Commun.,10.1038/ncomms11585
513,231,2016,7.85,7.6,12.8,0.65,0.92,ITIC,5.61,4.02,1.59,CCCCCCC(C=C1)=CC=C1C2(C3=CC=C(CCCCCC)C=C3)C4=CC5=C(C(C6=C5SC7=C6SC(/C=C8C(C(C=CC=C9)=C9C\8=C(C#N)\C#N)=O)=C7)(C%10=CC=C(CCCCCC)C=C%10)C%11=CC=C(CCCCCC)C=C%11)C=C4C%12=C2C(SC(/C=C%13C(C(C=CC=C%14)=C%14C\%13=C(C#N)/C#N)=O)=C%15)=C%15S%12,1427.96,PTFB-P,5.3,3.33,1.97,FC(C(F)=C(C1=CC(CC(CCCCCCCCCC)CCCCCCCCCCCC)=C(C)S1)C2=NN(CCC)N=C32)=C3C4=CC(CC(CCCCCCCCCC)CCCCCCCCCCCC)=C(S4)C5=CC=C(C6=C(F)C=C(C7=CC=C(C)S7)C(F)=C6)S5,75.8,46.1,1.64,1,1.5,CB,NA,90,100,,Nature Commun.,10.1038/ncomms13094
514,231,2016,10.13,9.9,15.5,0.7,0.92,ITIC,5.61,4.02,1.59,CCCCCCC(C=C1)=CC=C1C2(C3=CC=C(CCCCCC)C=C3)C4=CC5=C(C(C6=C5SC7=C6SC(/C=C8C(C(C=CC=C9)=C9C\8=C(C#N)\C#N)=O)=C7)(C%10=CC=C(CCCCCC)C=C%10)C%11=CC=C(CCCCCC)C=C%11)C=C4C%12=C2C(SC(/C=C%13C(C(C=CC=C%14)=C%14C\%13=C(C#N)/C#N)=O)=C%15)=C%15S%12,1427.96,PTFB-O,5.36,3.36,2,FC(C(F)=C(C1=CC(CC(CCCCCCCCCC)CCCCCCCCCCCC)=C(C)S1)C2=NN(CCC)N=C32)=C3C4=CC(CC(CCCCCCCCCC)CCCCCCCCCCCC)=C(S4)C5=CC=C(C6=C(F)C(F)=C(C7=CC=C(C)S7)C=C6)S5,88.4,43.8,2.02,1,1.5,CB,NA,90,100,,Nature Commun.,10.1038/ncomms13094
515,231,2016,10.88,10.5,17.1,0.67,0.92,ITIC-Th,5.66,3.96,1.7,O=C(C(C=CC=C1)=C1C/2=C(C#N)\C#N)C2=C/C3=CC(S4)=C(S3)C5=C4C6=CC(C(C7=C8SC9=C7SC(/C=C%10C(C(C=CC=C%11)=C%11C\%10=C(C#N)\C#N)=O)=C9)(C%12=CC=C(CCCCCC)S%12)C%13=CC=C(CCCCCC)S%13)=C8C=C6C(C%14=CSC(CCCCCC)=C%14)5C%15=CC=C(CCCCCC)S%15,1452.04,PTFB-O,5.36,3.36,2,FC(C(F)=C(C1=CC(CC(CCCCCCCCCC)CCCCCCCCCCCC)=C(C)S1)C2=NN(CCC)N=C32)=C3C4=CC(CC(CCCCCCCCCC)CCCCCCCCCCCC)=C(S4)C5=CC=C(C6=C(F)C(F)=C(C7=CC=C(C)S7)C=C6)S5,88.4,43.8,2.02,1,1.5,CB,NA,90,100,,Nature Commun.,10.1038/ncomms13094
516,232,2016,11.41,11.2,17.32,0.6977,0.94,ITIC,5.51,3.84,1.67,CCCCCCC(C=C1)=CC=C1C2(C3=CC=C(CCCCCC)C=C3)C4=CC5=C(C(C6=C5SC7=C6SC(/C=C8C(C(C=CC=C9)=C9C\8=C(C#N)\C#N)=O)=C7)(C%10=CC=C(CCCCCC)C=C%10)C%11=CC=C(CCCCCC)C=C%11)C=C4C%12=C2C(SC(/C=C%13C(C(C=CC=C%14)=C%14C\%13=C(C#N)/C#N)=O)=C%15)=C%15S%12,1427.96,J71,5.4,3.24,2.16,CCC[Si](CCC)(C1=CC=C(C(C2=C3C=C(C4=CC=C(C5=C(F)C(F)=C(C6=CC=C(C)S6)C7=NN(CC(CCCCCC)CCCCCCCC)N=C57)S4)S2)=C8C(SC(C)=C8)=C3C9=CC=C([Si](CCC)(CCC)CCC)S9)S1)CCC,47,23.5,2,1,1,CF,NA,150,100,,Nature Commun.,10.1038/ncomms13651
517,233,2018,12,11.8,18.5,0.63,1.03,EH-IDTBR,5.51,3.88,1.63,O=C(/C(S1)=C/C(C2=NSN=C32)=CC=C3C(S4)=CC5=C4C6=CC(C(CC(CC)CCCC)(CC(CC)CCCC)C7=C8SC(C9=CC=C(/C=C%10SC(N(CC)C\%10=O)=S)C%11=NSN=C9%11)=C7)=C8C=C6C5(CC(CC)CCCC)CC(CC)CCCC)N(CC)C1=S,1326.02,PTB7-Th,5.22,3.64,1.58,O=C(OCC(CC)CCCC)C1=C(F)C2=C(C)SC(C3=CC4=C(C(C5=CC=C(CC(CC)CCCC)S5)=C(C=C(C)S6)C6=C4C7=CC=C(CC(CC)CCCC)S7)S3)=C2S1,124,72.9,1.7,1,2.5,CB,NA,NA,100,,Nature Commun.,10.1038/s41467-018-04502-3
518,234,2017,4.53,4.41,10.26,0.46,0.96,TRIP-PDI3,5.97,3.81,2.16,O=C(N(C(CCCCCC)CCCCCC)C1=O)C2=CC(C3=CC4=C(C=C3)[C@H]5C6=C(C=CC(C7=C(C8=C9C=CC%10C8C(C(N(C(CCCCCC)CCCCCC)C%10=O)=O)=C7)C%11=CC=C%12C%13=C%11C9=CC=C%13C(N(C(CCCCCC)CCCCCC)C%12=O)=O)=C6)[C@@H]4C%14=C5C=CC(C%15=C(C%16=C%17C=CC%18C%16C(C(N(C(CCCCCC)CCCCCC)C%18=O)=O)=C%15)C%19=CC=C%20C%21=C%19C%17=CC=C%21C(N(C(CCCCCC)CCCCCC)C%20=O)=O)=C%14)=C(C%22=C%23C=CC1C%222)C%24=CC=C%25C%26=C%24C%23=CC=C%26C(N(C(CCCCCC)CCCCCC)C%25=O)=O,2519.5,PBDT-TS1,5.33,3.52,1.81,O=C(C1=C(C2=C(SC(C3=CC4=C(S3)C(C5=CC=C(S5)SCCCCCCCC)=C6C=C(SC6=C4C7=CC=C(S7)SCCCCCCCC)C)=C2S1)C)F)OCC(CCCC)CC,64.974,29.4,2.21,1,1,CB,DIO,100,,,New J. Chem.,10.1039/c7nj01971h
519,235,2018,1.67,1.67,4.82,0.373,0.93,SF(DPP3F)4,5.29,3.54,1.75,O=C1C(C2=C(C3=CC=C(C4=CC(F)=C(F)C(F)=C4)S3)N1CC(CC)CCCC)=C(C(S5)=CC=C5C6=CC7=C(C8C(C7(C9C%10C=CC(C%11=CC=C(C%12=C%13C(C(N%12CC(CC)CCCC)=O)=C(C%14=CC=C(C%15=CC(F)=C(F)C(F)=C%15)S%14)N(CC(CC)CCCC)C%13=O)S%11)=C9)C%16=C%10C=CC(C%17=CC=C(C%18=C%19C(C(N%18CC(CC)CCCC)=O)=C(C%20=CC=C(C%21=CC(F)=C(F)C(F)=C%21)S%20)N(CC(CC)CCCC)C%19=O)S%17)=C%16)C=C(C%22=CC=C(C%23=C%24C(C(N%23CC(CC)CCCC)=O)=C(C%25=CC=C(C%26=CC(F)=C(F)C(F)=C%26)S%25)N(CC(CC)CCCC)C%24=O)S%22)C=C8)C=C6)N(CC(CC)CCCC)C2=O,2931.78,P3HT,5,3.1,1.9,CC1=CC(CCCCCC)=C(C)S1,21.1,11.6,1.82,1,1,CB,NA,110,,,New J. Chem.,10.1039/c8nj01549j
520,235,2018,0.33,0.33,1.1,0.374,0.81,SF(DPPBT)4,5.21,3.63,1.58,O=C1C(C2=C(C3=CC=C(C4=CC(C=CC=C5)=C5O4)S3)N1CC(CC)CCCC)=C(C(S6)=CC=C6C7=CC8=C(C9C(C8(C%10C%11C=CC(C%12=CC=C(C%13=C%14C(C(N%13CC(CC)CCCC)=O)=C(C%15=CC=C(C%16=CC(C=CC=C%17)=C%17O%16)S%15)N(CC(CC)CCCC)C%14=O)S%12)=C%10)C%18=C%11C=CC(C%19=CC=C(C%20=C%21C(C(N%20CC(CC)CCCC)=O)=C(C%22=CC=C(C%23=CC(C=CC=C%24)=C%24O%23)S%22)N(CC(CC)CCCC)C%21=O)S%19)=C%18)C=C(C%25=CC=C(C%26=C%27C(C(N%26CC(CC)CCCC)=O)=C(C%28=CC=C(C%29=CC(C=CC=C%30)=C%30O%29)S%28)N(CC(CC)CCCC)C%27=O)S%25)C=C9)C=C7)N(CC(CC)CCCC)C2=O,2875.98,P3HT,5,3.1,1.9,CC1=CC(CCCCCC)=C(C)S1,21.1,11.6,1.82,1,1,CB,NA,110,,,New J. Chem.,10.1039/c8nj01549j