ID,Ref,year,PCE_max(%),PCE_ave(%),Jsc(mA/cm2),FF,Voc(V),Nickname(n),-HOMO_n(eV),-LUMO_n(eV),Eg_n(eV),n(SMILES),M (g/mol),Nickname(p),-HOMO_p(eV),-LUMO_p(eV),Eg_p(eV),p(SMILES),Mw (kg/mol),Mn(kg/mol),PDI,p/n ratio (p),p/n ratio (n),Solvent,Additive,TA (oC),thick (nm),,Journal,DOI
260,113,2018,12.5,12.1,20.8,0.718,0.84,IDIC,5.69,3.98,1.71,O=C(C(C=CC=C1)=C1C/2=C(C#N)\C#N)C2=C/C(S3)=CC4=C3C5=C(C4(CCCCCC)CCCCCC)C=C6C(C(CCCCCC)(CCCCCC)C7=C6SC(/C=C8C(C(C=CC=C9)=C9C\8=C(C#N)/C#N)=O)=C7)=C5,1011.4,FTAZ,5.38,3.17,2.21,CC1=CC2=C(C(CCC(CCCCCC)CCCC)=C(C=C(C3=CC=C(C4=C(F)C(F)=C(C5=CC=C(C)S5)C6=NN(CCC(CCCCCC)CCCC)N=C64)S3)S7)C7=C2CCC(CCCCCC)CCCC)S1,99.592,42.2,2.36,1,1.5,CF,DIO,NA,85,,Adv. Mater.,10.1002/adma.201706363
261,114,2018,4.31,4.26,8.55,0.525,0.96,INPIC,5.36,3.82,1.54,CCCCCCC(C=C1)=CC=C1C2(C3=CC=C(CCCCCC)C=C3)C4=CC5=C(C(C6=C5SC7=C6N(CCCCCCCC)C8=C7SC(/C=C9C(C(C=CC=C%10)=C%10C\9=C(C#N)\C#N)=O)=C8)(C%11=CC=C(CCCCCC)C=C%11)C%12=CC=C(CCCCCC)C=C%12)C=C4C%13=C2C(N(CCCCCCCC)C%14=C%15SC(/C=C%16/C(C%17=C(C%16=O)C=CC=C%17)=C(C#N)\C#N)=C%14)=C%15S%13,1730.46,PBDB-T,5.26,3.63,1.63,CC(SC1=C2C3=CC=C(CC(CC)CCCC)S3)=CC1=C(C4=CC=C(CC(CC)CCCC)S4)C5=C2C=C(S5)C6=CC=C(C7=C8C(C(C9=C(CC(CC)CCCC)SC(CC(CC)CCCC)=C9C8=O)=O)=C(C%10=CC=C(C)S%10)S7)S6,117,58.5,2,1,1,CB,DIO,100,120,,Adv. Mater.,10.1002/adma.201707150
262,114,2018,13.13,13.08,21.61,0.715,0.85,INPIC-4F,5.42,3.94,1.48,CCCCCCC(C=C1)=CC=C1C2(C3=CC=C(CCCCCC)C=C3)C4=CC5=C(C(C6=C5SC7=C6N(CCCCCCCC)C8=C7SC(/C=C9C(C(C=C(F)C(F)=C%10)=C%10C\9=C(C#N)\C#N)=O)=C8)(C%11=CC=C(CCCCCC)C=C%11)C%12=CC=C(CCCCCC)C=C%12)C=C4C%13=C2C(N(CCCCCCCC)C%14=C%15SC(/C=C%16/C(C%17=C(C%16=O)C=C(F)C(F)=C%17)=C(C#N)\C#N)=C%14)=C%15S%13,1802.42,PBDB-T,5.26,3.63,1.63,CC(SC1=C2C3=CC=C(CC(CC)CCCC)S3)=CC1=C(C4=CC=C(CC(CC)CCCC)S4)C5=C2C=C(S5)C6=CC=C(C7=C8C(C(C9=C(CC(CC)CCCC)SC(CC(CC)CCCC)=C9C8=O)=O)=C(C%10=CC=C(C)S%10)S7)S6,117,58.5,2,1,1,CB,DIO,100,120,,Adv. Mater.,10.1002/adma.201707150
263,115,2018,10.5,10.2,15.78,0.65,1.02,IT-M,5.58,3.93,1.65,CCCCCCC(C=C1)=CC=C1C2(C3=CC=C(CCCCCC)C=C3)C4=CC5=C(C(C6=C5SC7=C6SC(/C=C8C(C(C=CC(C)=C9)=C9C\8=C(C#N)\C#N)=O)=C7)(C%10=CC=C(CCCCCC)C=C%10)C%11=CC=C(CCCCCC)C=C%11)C=C4C%12=C2C(SC(/C=C%13C(C(C=CC(C)=C%14)=C%14C\%13=C(C#N)/C#N)=O)=C%15)=C%15S%12,1456.01,PBDB-TF,5.54,3.65,1.89,CC(SC1=C2C3=CC(F)=C(CC(CC)CCCC)S3)=CC1=C(C4=CC(F)=C(CC(CC)CCCC)S4)C5=C2C=C(S5)C6=CC=C(C7=C8C(C(C9=C(CC(CC)CCCC)SC(CC(CC)CCCC)=C9C8=O)=O)=C(C%10=CC=C(C)S%10)S7)S6,38.6,19.3,2,1,1,CB,DIO,100,90,,Adv. Mater.,10.1002/adma.201707170
264,115,2018,13.7,13.3,20.38,0.77,0.87,IT-4F,5.67,4.15,1.52,CCCCCCC(C=C1)=CC=C1C2(C3=CC=C(CCCCCC)C=C3)C4=CC5=C(C(C6=C5SC7=C6SC(/C=C8C(C(C=C(F)C(F)=C9)=C9C\8=C(C#N)\C#N)=O)=C7)(C%10=CC=C(CCCCCC)C=C%10)C%11=CC=C(CCCCCC)C=C%11)C=C4C%12=C2C(SC(/C=C%13C(C(C=C(F)C(F)=C%14)=C%14C\%13=C(C#N)/C#N)=O)=C%15)=C%15S%12,1499.92,PBDB-TF,5.54,3.65,1.89,CC(SC1=C2C3=CC(F)=C(CC(CC)CCCC)S3)=CC1=C(C4=CC(F)=C(CC(CC)CCCC)S4)C5=C2C=C(S5)C6=CC=C(C7=C8C(C(C9=C(CC(CC)CCCC)SC(CC(CC)CCCC)=C9C8=O)=O)=C(C%10=CC=C(C)S%10)S7)S6,38.6,19.3,2,1,1,CB,DIO,100,90,,Adv. Mater.,10.1002/adma.201707170
265,116,2018,10.06,9.81,15.81,0.67,0.94,FDICTF(F-H),5.42,3.71,1.71,O=C(C(C=CC=C1)=C1C/2=C(C#N)/C#N)C2=C/C3=CC4=C(S3)C5=CC6=C(C(C=C(C(CCCCCCCC)(CCCCCCCC)C7=C8SC(/C=C9C(C(C=CC=C%10)=C%10C\9=C(C#N)\C#N)=O)=C7)C8=C%11)=C%11C6(CCCCCCCC)CCCCCCCC)C=C5C4(CCCCCCCC)CCCCCCCC,1436.16,PBDB-T,5.33,3.53,1.8,CC(SC1=C2C3=CC=C(CC(CC)CCCC)S3)=CC1=C(C4=CC=C(CC(CC)CCCC)S4)C5=C2C=C(S5)C6=CC=C(C7=C8C(C(C9=C(CC(CC)CCCC)SC(CC(CC)CCCC)=C9C8=O)=O)=C(C%10=CC=C(C)S%10)S7)S6,117,58.5,2,1,1,CB,DIO,NA,80,,Adv. Mater.,10.1002/adma.201707508
266,116,2018,10.29,10.08,14.56,0.71,0.98,F-M,5.42,3.7,1.72,O=C(C(C=CC(C)=C1)=C1C/2=C(C#N)/C#N)C2=C/C3=CC4=C(S3)C5=CC6=C(C(C=C(C(CCCCCCCC)(CCCCCCCC)C7=C8SC(/C=C9C(C(C=CC(C)=C%10)=C%10C\9=C(C#N)\C#N)=O)=C7)C8=C%11)=C%11C6(CCCCCCCC)CCCCCCCC)C=C5C4(CCCCCCCC)CCCCCCCC,1464.21,PBDB-T,5.33,3.53,1.8,CC(SC1=C2C3=CC=C(CC(CC)CCCC)S3)=CC1=C(C4=CC=C(CC(CC)CCCC)S4)C5=C2C=C(S5)C6=CC=C(C7=C8C(C(C9=C(CC(CC)CCCC)SC(CC(CC)CCCC)=C9C8=O)=O)=C(C%10=CC=C(C)S%10)S7)S6,117,58.5,2,1,1,CB,DIO,NA,80,,Adv. Mater.,10.1002/adma.201707508
267,116,2018,6.74,6.74,14.59,0.58,0.8,NFBDT,5.43,3.88,1.55,O=C1C2=C(C(/C1=C/C(S3)=CC4=C3C5=C(C4(C6=CC=C(CCCCCC)C=C6)C7=CC=C(CCCCCC)C=C7)C8=CC(SC9=C%10C(C%11=CC=C(CCCCCC)C=C%11)(C%12=CC=C(CCCCCC)C=C%12)C%13=C9SC(/C=C%14C(C(C=CC=C%15)=C%15C\%14=C(C#N)\C#N)=O)=C%13)=C%10C=C8S5)=C(C#N)/C#N)C=CC=C2,1427.96,PTB7-Th,5.22,3.64,1.58,O=C(OCC(CC)CCCC)C1=C(F)C2=C(C)SC(C3=CC4=C(C(C5=CC=C(CC(CC)CCCC)S5)=C(C=C(C)S6)C6=C4C7=CC=C(CC(CC)CCCC)S7)S3)=C2S1,124,72.9,1.7,1,1.6,CF,DIO,NA,80,,Adv. Mater.,10.1002/adma.201707508
268,116,2018,10.55,10.26,19.16,0.7,0.77,NOBDT,5.26,3.89,1.37,O=C1C2=C(C(/C1=C/C(S3)=CC4=C3C5=C(C4(C6=CC=C(CCCCCC)C=C6)C7=CC=C(CCCCCC)C=C7)C8=C(OCCCCCCCC)C(SC9=C%10C(C%11=CC=C(CCCCCC)C=C%11)(C%12=CC=C(CCCCCC)C=C%12)C%13=C9SC(/C=C%14C(C(C=CC(F)=C%15)=C%15C\%14=C(C#N)\C#N)=O)=C%13)=C%10C(OCCCCCCCC)=C8S5)=C(C#N)/C#N)C=C(F)C=C2,1720.37,PTB7-Th,5.22,3.64,1.58,O=C(OCC(CC)CCCC)C1=C(F)C2=C(C)SC(C3=CC4=C(C(C5=CC=C(CC(CC)CCCC)S5)=C(C=C(C)S6)C6=C4C7=CC=C(CC(CC)CCCC)S7)S3)=C2S1,124,72.9,1.7,1,1.6,CF,DIO,NA,80,,Adv. Mater.,10.1002/adma.201707508
269,117,2018,6.4,6.33,12.06,0.6248,0.85,IDTCN,5.87,3.92,1.95,CCCCCCC(C=C1)=CC=C1C2(C3=CC=C(CCCCCC)C=C3)C4=CC5=C(C(C6=C5SC(/C=C7C(C8=CSC=C8C\7=C(C#N)\C#N)=O)=C6)(C9=CC=C(CCCCCC)C=C9)C%10=CC=C(CCCCCC)C=C%10)C=C4C%11=C2C=C(C=C%12C(C%13=CSC=C%13/C%12=C(C#N)\C#N)=O)S%11,1327.84,PBDB-T,5.23,3.18,2.05,CC(SC1=C2C3=CC=C(CC(CC)CCCC)S3)=CC1=C(C4=CC=C(CC(CC)CCCC)S4)C5=C2C=C(S5)C6=CC=C(C7=C8C(C(C9=C(CC(CC)CCCC)SC(CC(CC)CCCC)=C9C8=O)=O)=C(C%10=CC=C(C)S%10)S7)S6,117,58.5,2,1,1,CB,DIO,110,,,Adv. Mater.,10.1002/adma.201800052
270,117,2018,10.74,10.52,17.53,0.7277,0.84,ITCPTC,5.61,3.96,1.65,CCCCCCC(C=C1)=CC=C1C2(C3=CC=C(CCCCCC)C=C3)C4=CC5=C(C(C6=C5SC7=C6SC(/C=C8C(C9=CSC=C9C\8=C(C#N)\C#N)=O)=C7)(C%10=CC=C(CCCCCC)C=C%10)C%11=CC=C(CCCCCC)C=C%11)C=C4C%12=C2C(SC(/C=C%13C(C%14=CSC=C%14C\%13=C(C#N)/C#N)=O)=C%15)=C%15S%12,1440,PBDB-T,5.23,3.18,2.05,CC(SC1=C2C3=CC=C(CC(CC)CCCC)S3)=CC1=C(C4=CC=C(CC(CC)CCCC)S4)C5=C2C=C(S5)C6=CC=C(C7=C8C(C(C9=C(CC(CC)CCCC)SC(CC(CC)CCCC)=C9C8=O)=O)=C(C%10=CC=C(C)S%10)S7)S6,117,58.5,2,1,1,CB,DIO,110,,,Adv. Mater.,10.1002/adma.201800052
271,117,2018,9.2,9.21,15.14,0.7377,0.83,IDT6CN,5.68,3.97,1.71,CCCCCCC(C=C1)=CC=C1C2(C3=CC=C(CCCCCC)C=C3)C4=CC5=C(C(C6=C5SC7=C6SC(/C=C8C(C(C=CC=C9)=C9C\8=C(C#N)\C#N)=O)=C7)(C%10=CC=C(CCCCCC)C=C%10)C%11=CC=C(CCCCCC)C=C%11)C=C4C%12=C2C=C(/C=C%13C(C(C=CC=C%14)=C%14C\%13=C(C#N)/C#N)=O)S%12,1371.87,PBDB-T,5.23,3.18,2.05,CC(SC1=C2C3=CC=C(CC(CC)CCCC)S3)=CC1=C(C4=CC=C(CC(CC)CCCC)S4)C5=C2C=C(S5)C6=CC=C(C7=C8C(C(C9=C(CC(CC)CCCC)SC(CC(CC)CCCC)=C9C8=O)=O)=C(C%10=CC=C(C)S%10)S7)S6,117,58.5,2,1,1,CB,DIO,110,,,Adv. Mater.,10.1002/adma.201800052
272,117,2018,10.41,10.32,16.75,0.7672,0.81,IDT6CN-Th,5.71,4.01,1.7,O=C(C(C=CC=C1)=C1C/2=C(C#N)\C#N)C2=C/C(S3)=CC4=C3C5=CC(C(C6=C7SC8=C6SC(/C=C9C(C(C=CC=C%10)=C%10C\9=C(C#N)\C#N)=O)=C8)(C%11=CC=C(CCCCCC)S%11)C%12=CC=C(CCCCCC)S%12)=C7C=C5C(C%13=CC=C(CCCCCC)S%13)4C%14=CC=C(CCCCCC)S%14,1395.96,PBDB-T,5.23,3.18,2.05,CC(SC1=C2C3=CC=C(CC(CC)CCCC)S3)=CC1=C(C4=CC=C(CC(CC)CCCC)S4)C5=C2C=C(S5)C6=CC=C(C7=C8C(C(C9=C(CC(CC)CCCC)SC(CC(CC)CCCC)=C9C8=O)=O)=C(C%10=CC=C(C)S%10)S7)S6,117,58.5,2,1,1,CB,DIO,110,,,Adv. Mater.,10.1002/adma.201800052
273,117,2018,11.2,11.11,16.02,0.7683,0.91,IDT6CN-M,5.6,3.87,1.73,CCCCCCC(C=C1)=CC=C1C2(C3=CC=C(CCCCCC)C=C3)C4=CC5=C(C(C6=C5SC7=C6SC(/C=C8C(C(C=CC(C)=C9)=C9C\8=C(C#N)\C#N)=O)=C7)(C%10=CC=C(CCCCCC)C=C%10)C%11=CC=C(CCCCCC)C=C%11)C=C4C%12=C2C=C(/C=C%13C(C(C=C(C)C=C%14)=C%14C\%13=C(C#N)/C#N)=O)S%12,1399.93,PBDB-T,5.23,3.18,2.05,CC(SC1=C2C3=CC=C(CC(CC)CCCC)S3)=CC1=C(C4=CC=C(CC(CC)CCCC)S4)C5=C2C=C(S5)C6=CC=C(C7=C8C(C(C9=C(CC(CC)CCCC)SC(CC(CC)CCCC)=C9C8=O)=O)=C(C%10=CC=C(C)S%10)S7)S6,117,58.5,2,1,1,DCB,DIO,110,,,Adv. Mater.,10.1002/adma.201800052
274,118,2018,13.45,13.18,22.67,0.752,0.79,IT-4Cl,5.75,4.09,1.66,CCCCCCC(C=C1)=CC=C1C2(C3=CC=C(CCCCCC)C=C3)C4=CC5=C(C(C6=C5SC7=C6SC(/C=C8C(C(C=C(Cl)C(Cl)=C9)=C9C\8=C(C#N)\C#N)=O)=C7)(C%10=CC=C(CCCCCC)C=C%10)C%11=CC=C(CCCCCC)C=C%11)C=C4C%12=C2C(SC(/C=C%13C(C(C=C(Cl)C(Cl)=C%14)=C%14C\%13=C(C#N)/C#N)=O)=C%15)=C%15S%12,1565.72,PBDB-T2F,5.45,3.65,1.8,CC(SC1=C2C3=CC(F)=C(CC(CC)CCCC)S3)=CC1=C(C4=CC(F)=C(CC(CC)CCCC)S4)C5=C2C=C(S5)C6=CC=C(C7=C8C(C(C9=C(CC(CC)CCCC)SC(CC(CC)CCCC)=C9C8=O)=O)=C(C%10=CC=C(C)S%10)S7)S6,38.6,19.3,2,1,1,OX,DIO,NA,100,,Adv. Mater.,10.1002/adma.201800613
275,118,2018,13.16,13.03,19.08,0.748,0.922,IT-2Cl,5.68,3.99,1.69,CCCCCCC(C=C1)=CC=C1C2(C3=CC=C(CCCCCC)C=C3)C4=CC5=C(C(C6=C5SC7=C6SC(/C=C8C(C(C=CC(Cl)=C9)=C9C\8=C(C#N)\C#N)=O)=C7)(C%10=CC=C(CCCCCC)C=C%10)C%11=CC=C(CCCCCC)C=C%11)C=C4C%12=C2C(SC(/C=C%13C(C(C=CC(Cl)=C%14)=C%14C\%13=C(C#N)/C#N)=O)=C%15)=C%15S%12,1496.84,PBDB-T2F,5.45,3.65,1.8,CC(SC1=C2C3=CC(F)=C(CC(CC)CCCC)S3)=CC1=C(C4=CC(F)=C(CC(CC)CCCC)S4)C5=C2C=C(S5)C6=CC=C(C7=C8C(C(C9=C(CC(CC)CCCC)SC(CC(CC)CCCC)=C9C8=O)=O)=C(C%10=CC=C(C)S%10)S7)S6,38.6,19.3,2,1,1,OX,DIO,NA,100,,Adv. Mater.,10.1002/adma.201800613
276,119,2018,12.34,12.07,17.02,0.681,1.06,ITIC-Th,5.78,4,1.78,O=C(C(C=CC=C1)=C1C/2=C(C#N)\C#N)C2=C/C3=CC(S4)=C(S3)C5=C4C6=CC(C(C7=C8SC9=C7SC(/C=C%10C(C(C=CC=C%11)=C%11C\%10=C(C#N)\C#N)=O)=C9)(C%12=CC=C(CCCCCC)S%12)C%13=CC=C(CCCCCC)S%13)=C8C=C6C(C%14=CSC(CCCCCC)=C%14)5C%15=CC=C(CCCCCC)S%15,1452.04,PBDT-ODZ,5.68,2.89,2.79,CC(SC1=C2C3=CC=C(CC(CCCCCC)CCCCCCCC)S3)=CC1=C(C4=CC=C(CC(CCCCCC)CCCCCCCC)S4)C5=C2C=C(S5)C6=C(CCCCCCCC)C=C(C7=NN=C(C8=CC(CCCCCCCC)=C(C)S8)O7)S6,83.6,41.8,2,1,1,CB,NA,NA,,,Adv. Mater.,10.1002/adma.201800737
277,120,2018,13.2,13.1,20.81,0.76,0.84,IT-4F,5.67,4.15,1.52,CCCCCCC(C=C1)=CC=C1C2(C3=CC=C(CCCCCC)C=C3)C4=CC5=C(C(C6=C5SC7=C6SC(/C=C8C(C(C=C(F)C(F)=C9)=C9C\8=C(C#N)\C#N)=O)=C7)(C%10=CC=C(CCCCCC)C=C%10)C%11=CC=C(CCCCCC)C=C%11)C=C4C%12=C2C(SC(/C=C%13C(C(C=C(F)C(F)=C%14)=C%14C\%13=C(C#N)/C#N)=O)=C%15)=C%15S%12,1499.92,PBDB-T2F,5.47,3.63,1.84,CC(SC1=C2C3=CC(F)=C(CC(CC)CCCC)S3)=CC1=C(C4=CC(F)=C(CC(CC)CCCC)S4)C5=C2C=C(S5)C6=CC=C(C7=C8C(C(C9=C(CC(CC)CCCC)SC(CC(CC)CCCC)=C9C8=O)=O)=C(C%10=CC=C(C)S%10)S7)S6,43.416,26.8,1.62,1,1,CB,DIO,100,,,Adv. Mater.,10.1002/adma.201800868
278,120,2018,14.4,14,21.8,0.77,0.86,IT-4F,5.67,4.15,1.52,CCCCCCC(C=C1)=CC=C1C2(C3=CC=C(CCCCCC)C=C3)C4=CC5=C(C(C6=C5SC7=C6SC(/C=C8C(C(C=C(F)C(F)=C9)=C9C\8=C(C#N)\C#N)=O)=C7)(C%10=CC=C(CCCCCC)C=C%10)C%11=CC=C(CCCCCC)C=C%11)C=C4C%12=C2C(SC(/C=C%13C(C(C=C(F)C(F)=C%14)=C%14C\%13=C(C#N)/C#N)=O)=C%15)=C%15S%12,1499.92,PBDB-T2Cl,5.51,3.67,1.84,CC(SC1=C2C3=CC(Cl)=C(CC(CC)CCCC)S3)=CC1=C(C4=CC(Cl)=C(CC(CC)CCCC)S4)C5=C2C=C(S5)C6=CC=C(C7=C8C(C(C9=C(CC(CC)CCCC)SC(CC(CC)CCCC)=C9C8=O)=O)=C(C%10=CC=C(C)S%10)S7)S6,44.88,25.5,1.76,1,1,CB,DIO,100,,,Adv. Mater.,10.1002/adma.201800868
279,121,2017,4.91,4.8,11.27,0.5146,0.829,DMTPA-PDI3,5.36,3.74,1.62,O=C(N(C(CCCCCC)CCCCCC)C1=O)C2=CC=C(C3=C4C=CC1C32)C5=C(C#CC6=CC(C(C)(C)C7=CC(C#CC(C=C8C(N(C(CCCCCC)CCCCCC)C9=O)=O)=C%10C%11=C8C9=CC=C%11C%12=CC=C(C%13=O)C%14C%12=C%10C=CC%14C(N%13C(CCCCCC)CCCCCC)=O)=CC(C(C)(C)C%15=CC(C#CC(C=C%16C(N(C(CCCCCC)CCCCCC)C%17=O)=O)=C%18C%19=C%16C%17=CC=C%19C%20=CC=C(C%21=O)C%22C%20=C%18C=CC%22C(N%21C(CCCCCC)CCCCCC)=O)=C%23)=C7%24)=C(N%24C%15=C%23C%25(C)C)C%25=C6)C=C%26C%27=C5C4=CC=C%27C(N(C(CCCCCC)CCCCCC)C%26=O)=O,2702.75,PTB7-Th,5.22,3.64,1.58,O=C(OCC(CC)CCCC)C1=C(F)C2=C(C)SC(C3=CC4=C(C(C5=CC=C(CC(CC)CCCC)S5)=C(C=C(C)S6)C6=C4C7=CC=C(CC(CC)CCCC)S7)S3)=C2S1,124,72.9,1.7,1,0.67,CB,CN,NA,,,Adv. Sci.,10.1002/advs.201700110
280,122,2018,12.21,11.96,25.89,0.712,0.662,3TT-FIC,5.42,4.17,1.25,O=C(C(C=C(F)C(F)=C1)=C1C/2=C(C#N)/C#N)C2=C/C3=CC(SC4=C5C(C6=CC=C(CC(CC)CCCC)C=C6)(C7=CC=C(CC(CC)CCCC)C=C7)C8=C4SC9=C8SC%10=C9C(C%11=CC=C(CC(CC)CCCC)C=C%11)(C%12=CC=C(CC(CC)CCCC)C=C%12)C%13=C%10SC%14=C%13SC(/C=C%15C(C(C=C(F)C(F)=C%16)=C%16C\%15=C(C#N)\C#N)=O)=C%14)=C5S3,1674.24,PTB7-Th,5.22,3.64,1.58,O=C(OCC(CC)CCCC)C1=C(F)C2=C(C)SC(C3=CC4=C(C(C5=CC=C(CC(CC)CCCC)S5)=C(C=C(C)S6)C6=C4C7=CC=C(CC(CC)CCCC)S7)S3)=C2S1,124,72.9,1.7,1,1.2,CB,NA,NA,,,Adv. Sci.,10.1002/advs.201800307
281,123,2013,1.6,1.6,4.87,0.57,0.58,DTI,5.81,3.61,2.2,O=C(N(C(CCCCCCCC)CCCCCCCC)C1=O)C2=CC=C3C4=C2C1=CC=C4C5=C6C(C7=CC=C8C9=C7C6=CC=C9C(N(C(CCCCCCCC)CCCCCCCC)C8=O)=O)=C%10C(C%11=CC=C%12C%13=C%11C%10=CC=C%13C(N(C(CCCCCCCC)CCCCCCCC)C%12=O)=O)=C53,1372.97,P3HT,4.9,3,1.9,CC1=CC(CCCCCC)=C(C)S1,21.1,11.6,1.82,1,1,DCB,NA,NA,,,Angew. Chem. Int. Ed.,10.1002/anie.201207608
282,124,2013,1.8,1.74,5.14,0.44,0.79,BFI-T2,5.3,3.7,1.6,O=C(N(CC(CCCCCC)CCCCCCCC)C1=O)C2=C(C1=CC=C3C4=NC5=C(C6=CC=CS6)C7=NC8=C9C%10=C%11C(C%12=CC=C%118)=C(C(N(CC(CCCCCC)CCCCCCCCC)C%12=O)=O)C=C%10)C3=C(C4=NC5=C(C%13=CC=CS%13)C7=N9)C=C2,1195.64,PSEHTT,5.1,3.3,1.8,CC1=CC(CC(CC)CCCC)=C(C2=NC(SC(C3=C(CC(CCCC)CC)C=C(C4=CC([Si](CC(CC)CCCC)(CC(CCCC)CC)C5=C6SC(C)=C5)=C6S4)S3)=N7)=C7S2)S1,132.21,33.9,3.9,1,4,CB,NA,150,90,,Angew. Chem. Int. Ed.,10.1002/anie.201210085
283,125,2015,2.85,2.85,7.91,0.46,0.61,N5,5.71,3.64,2.07,O=C(C(C=CC=C1)=C1C/2=O)C2=C/C3=CC=C(C4=CC=C(C(C=CC(C5=CC=C(/C=C6C(C(C=CC=C7)=C7C\6=O)=O)S5)=C8)=C8[Si]9(CCCCCCCC)CCCCCCCC)C9=C4)S3,883.25,P3HT,5.2,3.2,2,CC1=CC(CCCCCC)=C(C)S1,21.1,11.6,1.82,1,1,DCB,NA,110,58,,Asian J. Org. Chem.,10.1002/ajoc.201500207
284,126,2018,7.74,7.67,15.98,0.5467,0.89,IDTBOR,5.49,3.93,1.56,O=C(/C(S1)=C/C(C2=NON=C32)=CC=C3C(S4)=CC5=C4C6=CC(C(CCCCCCCC)(CCCCCCCC)C7=C8SC(C9=CC=C(/C=C%10SC(N(CC)C\%10=O)=S)C%11=NON=C9%11)=C7)=C8C=C6C5(CCCCCCCC)CCCCCCCC)N(CC)C1=S,1293.89,PBDB-T,5.33,3.53,1.8,CC(SC1=C2C3=CC=C(CC(CC)CCCC)S3)=CC1=C(C4=CC=C(CC(CC)CCCC)S4)C5=C2C=C(S5)C6=CC=C(C7=C8C(C(C9=C(CC(CC)CCCC)SC(CC(CC)CCCC)=C9C8=O)=O)=C(C%10=CC=C(C)S%10)S7)S6,117,58.5,2,1,2,CB,NA,130,,,Asian J. Org. Chem.,10.1002/ajoc.201800389
285,126,2018,6.95,6.88,13.95,0.5238,0.95,IDTBSR,5.41,3.88,1.53,O=C(/C(S1)=C/C(C2=N[Se]N=C32)=CC=C3C(S4)=CC5=C4C6=CC(C(CCCCCCCC)(CCCCCCCC)C7=C8SC(C9=CC=C(/C=C%10SC(N(CC)C\%10=O)=S)C%11=N[Se]N=C9%11)=C7)=C8C=C6C5(CCCCCCCC)CCCCCCCC)N(CC)C1=S,1419.82,PBDB-T,5.33,3.53,1.8,CC(SC1=C2C3=CC=C(CC(CC)CCCC)S3)=CC1=C(C4=CC=C(CC(CC)CCCC)S4)C5=C2C=C(S5)C6=CC=C(C7=C8C(C(C9=C(CC(CC)CCCC)SC(CC(CC)CCCC)=C9C8=O)=O)=C(C%10=CC=C(C)S%10)S7)S6,117,58.5,2,1,2,CB,NA,130,,,Asian J. Org. Chem.,10.1002/ajoc.201800389
286,127,2014,2.4,2.4,5.14,0.45,1.03,Th–PhCHO,6.18,2.72,3.46,O=C(N(CCCCCCCC)C1=O)C2=C1C(C3=CC=CS3)=C(C4=CC=C(C5=CC=C(C([H])=O)C=C5)C6=C4C7=CC=C6)C7=C2C8=CC=CS8,651.84,P3HT,4.9,3,1.9,CC1=CC(CCCCCC)=C(C)S1,21.1,11.6,1.82,1,1,CB,NA,100,,,Chem. Commun.,10.1039/c3cc47289b
287,127,2014,1.61,1.61,3.5,0.45,1.02,Th–COOMe,6.12,2.67,3.45,O=C(N(CCCCCCCC)C1=O)C2=C1C(C3=CC=CS3)=C(C4=CC=C(C(OC)=O)C5=C4C6=CC=C5)C6=C2C7=CC=CS7,605.77,P3HT,4.9,3,1.9,CC1=CC(CCCCCC)=C(C)S1,21.1,11.6,1.82,1,1,CB,NA,100,,,Chem. Commun.,10.1039/c3cc47289b
288,128,2016,1.87,1.73,4.1,0.43,1.06,NI-AA-NI,6,3.57,2.43,O=C(N(CCCCCCCC)C1=O)C2=C(C1=CC=C3C#CC#CC4=CC=C5C6=C(C(N(CCCCCCCC)C5=O)=O)C=CC=C64)C3=CC=C2,664.85,P1,5.23,3.26,1.97,CCCCCCCCCN(C1=C2C=CC(C)=C1)C3=C2C=CC(C4=CC=C(S4)C5=C(C(OCCCCCCCCCCCC)=C(C6=NSN=C56)C7=CC=C(C)S7)OCCCCCCCCCCCC)=C3,50.3,25.15,2,1,1,CB,CN,NA,47,,Chem. Commun.,10.1039/c5cc08023a
289,128,2016,3.71,3.65,6.29,0.55,1.07,NI-AA-NI,6,3.57,2.43,O=C(N(CCCCCCCC)C1=O)C2=C(C1=CC=C3C#CC#CC4=CC=C5C6=C(C(N(CCCCCCCC)C5=O)=O)C=CC=C64)C3=CC=C2,664.85,P2,5.28,3.33,1.95,CCCCC(CN(C1=C2C=CC(C)=C1)C3=C2C=CC(C4=CC=C(S4)C5=C(C(OCC(CCCCCCCC)CCCCCC)=C(C6=NSN=C56)C7=CC=C(C)S7)F)=C3)CC,119.1,59.55,2,1,1,CB,CN,NA,52,,Chem. Commun.,10.1039/c5cc08023a
290,129,2016,0.94,0.94,3.33,0.3878,0.73,PDI5,5.87,3.79,2.08,O=C(N(C(CCCCC)CCCCC)C1=O)C2=CC=C(C3=C4C=CC1C32)C5=CC=C6C7=C5C4=CC=C7C(N(C(CCCCC)CCCCC)C6=O)=O,700.96,PPDT2FBT,5.31,3.56,1.75,FC(C(F)=C(C1=NSN=C12)C)=C2C(S3)=CC=C3C4=C(OCC(CCCCCC)CCCCCCCC)C=C(C5=CC=C(C)S5)C(OCC(CCCCCC)CCCCCCCC)=C4,100.8,48,2.1,1,4,CF,DPE,NA,,,Chem. Commun.,10.1039/c6cc04229e
291,129,2016,2.14,2.14,6.04,0.3984,0.89,CP-M,5.92,3.85,2.07,O=C(N(C(CCCCC)CCCCC)C1=O)C2=CC=C(C3=C4C=CC1C32)C5=C(C6=CC=C(C7(CCCCC7)C8=CC=C(C(C=C9%10)=C%11C%12=CC=C%13C(N(C(C%14C=CC(C%15=CC=C(C%10=C%15%11)C(N(C9=O)C(CCCCC)CCCCC)=O)=C%12C%13%14)=O)C(CCCCC)CCCCC)=O)C=C8)C=C6)C=C%16C%17=C5C4=CC=C%17C(N(C(CCCCC)CCCCC)C%16=O)=O,1634.25,PPDT2FBT,5.31,3.56,1.75,FC(C(F)=C(C1=NSN=C12)C)=C2C(S3)=CC=C3C4=C(OCC(CCCCCC)CCCCCCCC)C=C(C5=CC=C(C)S5)C(OCC(CCCCCC)CCCCCCCC)=C4,100.8,48,2.1,1,2,CF,DPE,NA,,,Chem. Commun.,10.1039/c6cc04229e
292,129,2016,5.28,5.28,10.04,0.6016,0.87,CP-V,6.16,3.98,2.18,CCCCCC(N(C(C1=CC=C2C(C=CC34)=C5C4C(C(N(C6=CC=C(C7(CCCCC7)C8=CC=C(N(C9=O)C(C%10=CC=C%11C%12=C(C%13=CC=C(C%14=C%13C%11=CC=C%15%14)C(N(C%15=O)C(CCCCC)CCCCC)=O)C=CC9C%10%12)=O)C=C8)C=C6)C3=O)=O)=CC=C5C%16=CC=C%17C1=C2%16)=O)C%17=O)CCCCC,1325.66,PPDT2FBT,5.31,3.56,1.75,FC(C(F)=C(C1=NSN=C12)C)=C2C(S3)=CC=C3C4=C(OCC(CCCCCC)CCCCCCCC)C=C(C5=CC=C(C)S5)C(OCC(CCCCCC)CCCCCCCC)=C4,100.8,48,2.1,1,2,CF,DPE,NA,,,Chem. Commun.,10.1039/c6cc04229e
293,130,2017,9.4,9.2,15.7,0.723,0.833,FRD2,5.67,3.58,2.09,O=C(/C(S1)=C/C2=CC=C(C3=CC=C(C4=CC=C(C(C=CC(C5=CC=C(C6=CC=C(/C=C7SC(N(CC)C\7=O)=S)O6)C8=NSN=C58)=C9)=C9C%10(CC(CC)CCCC)CC(CC)CCCC)C%10=C4)C%11=NSN=C3%11)O2)N(CC)C1=S,1133.55,PTB7-Th,5.22,3.64,1.58,O=C(OCC(CC)CCCC)C1=C(F)C2=C(C)SC(C3=CC4=C(C(C5=CC=C(CC(CC)CCCC)S5)=C(C=C(C)S6)C6=C4C7=CC=C(CC(CC)CCCC)S7)S3)=C2S1,124,72.9,1.7,1,1.5,CB,DIO,NA,150,,Chem. Commun.,10.1039/c7cc08237a
294,131,2018,5.42,4.84,8.17,0.52,1.15,FTB,5.75,3.5,2.25,CCCCCCCCC1(CCCCCCCC)C2=C(C=CC(C3=CC=C(/C=C4C(N(C)C(N(C)C\4=O)=O)=O)S3)=C2)C5=CC=C(C6=CC=C(/C=C7C(N(C)C(N(C)C\7=O)=O)=O)S6)C=C51,887.17,PSEHTT,5.17,3.33,1.84,CC1=CC(CC(CC)CCCC)=C(C2=NC(SC(C3=C(CC(CCCC)CC)C=C(C4=CC([Si](CC(CC)CCCC)(CC(CCCC)CC)C5=C6SC(C)=C5)=C6S4)S3)=N7)=C7S2)S1,132.21,33.9,3.9,1,2,CB,NA,NA,,,Chem. Commun.,10.1039/c7cc09123k
295,131,2018,7.17,6.38,12.47,0.51,1,FTTB,5.66,3.72,1.94,CCCCCCCCC1(CCCCCCCC)C2=C(C=CC(C3=CC=C(/C=C4C(N(CC)C(N(CC)C\4=O)=S)=O)S3)=C2)C5=CC=C(C6=CC=C(/C=C7C(N(CC)C(N(CC)C\7=O)=S)=O)S6)C=C51,975.4,PSEHTT,5.17,3.33,1.84,CC1=CC(CC(CC)CCCC)=C(C2=NC(SC(C3=C(CC(CCCC)CC)C=C(C4=CC([Si](CC(CC)CCCC)(CC(CCCC)CC)C5=C6SC(C)=C5)=C6S4)S3)=N7)=C7S2)S1,132.21,33.9,3.9,1,2,CB,NA,NA,,,Chem. Commun.,10.1039/c7cc09123k
296,132,2018,1.63,1.43,5.71,0.2957,0.97,A1,5.15,3.73,1.42,CCCCCCC(C=C1)=CC=C1C2(C3=CC=C(CCCCCC)C=C3)C4=CC5=C(C(C6=C5SC(C7=C(CC(CC)CCCC)C=C(C8C9%10=C%11C%12=C%13C%14=C(C%15=C%12C(C%11=C%16C%17=C%189CN8C)=C%19%20)C%21=C%22C%23=C(C%24=C%25C%26=C%23%27)C%28=C%21C%15=C%19C%29=C%28C%24=C(C%30=C%25%31)C%32=C%29C%20=C%16C(C%17=C%33%34)=C%32C%30=C%33C%35=C%31C%26=C%36C%37=C%35C%34=C%18C(C%10=C%38%13)=C%37C%39=C%38C%14=C%22C%27=C%36%39)S7)=C6)(C%40=CC=C(CCCCCC)C=C%40)C%41=CC=C(CCCCCC)C=C%41)C=C4C%42=C2C=C(C%43=C(CC(CC)CCCC)C=C(/C=C%44C(C(C=CC=C%45)=C%45C\%44=C(C#N)/C#N)=O)S%43)S%42,2276.02,J71,5.4,3.24,2.16,CCC[Si](CCC)(C1=CC=C(C(C2=C3C=C(C4=CC=C(C5=C(F)C(F)=C(C6=CC=C(C)S6)C7=NN(CC(CCCCCC)CCCCCCCC)N=C57)S4)S2)=C8C(SC(C)=C8)=C3C9=CC=C([Si](CCC)(CCC)CCC)S9)S1)CCC,47,23.5,2,1,1,CF,CN,NA,,,Chem. Commun.,10.1039/c8cc04845b
297,132,2018,4.52,4.33,11.63,0.3963,0.98,A2,5.37,3.67,1.7,CCCCCCC(C=C1)=CC=C1C2(C3=CC=C(CCCCCC)C=C3)C4=CC5=C(C(C6=C5SC7=C6SC(C8C9%10=C%11C%12=C%13C%14=C(C%15=C%12C(C%11=C%16C%17=C%189CN8C)=C%19%20)C%21=C%22C%23=C(C%24=C%25C%26=C%23%27)C%28=C%21C%15=C%19C%29=C%28C%24=C(C%30=C%25%31)C%32=C%29C%20=C%16C(C%17=C%33%34)=C%32C%30=C%33C%35=C%31C%26=C%36C%37=C%35C%34=C%18C(C%10=C%38%13)=C%37C%39=C%38C%14=C%22C%27=C%36%39)=C7)(C%40=CC=C(CCCCCC)C=C%40)C%41=CC=C(CCCCCC)C=C%41)C=C4C%42=C2C(SC(/C=C%43C(C(C=CC=C%44)=C%44C\%43=C(C#N)/C#N)=O)=C%45)=C%45S%42,1999.51,J71,5.4,3.24,2.16,CCC[Si](CCC)(C1=CC=C(C(C2=C3C=C(C4=CC=C(C5=C(F)C(F)=C(C6=CC=C(C)S6)C7=NN(CC(CCCCCC)CCCCCCCC)N=C57)S4)S2)=C8C(SC(C)=C8)=C3C9=CC=C([Si](CCC)(CCC)CCC)S9)S1)CCC,47,23.5,2,1,1,CF,CN,NA,,,Chem. Commun.,10.1039/c8cc04845b