ID,Ref,year,PCE_max(%),PCE_ave(%),Jsc(mA/cm2),FF,Voc(V),Nickname(n),-HOMO_n(eV),-LUMO_n(eV),Eg_n(eV),n(SMILES),M (g/mol),Nickname(p),-HOMO_p(eV),-LUMO_p(eV),Eg_p(eV),p(SMILES),Mw (kg/mol),Mn(kg/mol),PDI,p/n ratio (p),p/n ratio (n),Solvent,Additive,TA (oC),thick (nm),,Journal,DOI
1263,544,2019,10.42,10.23,15.99,0.6796,0.94,HC-PCIC,5.54,3.87,1.67,O=C(C(C=C(Cl)C(Cl)=C1)=C1C/2=C(C#N)/C#N)C2=C/C3=CC(C4(CC(CC)CCCC)CC(CC)CCCC)=C(S3)C5=C4C=C(S5)C6=C(F)C=C(C(S7)=CC8=C7C(SC(/C=C9C(C(C=C(Cl)C(Cl)=C%10)=C%10C\9=C(C#N)\C#N)=O)=C%11)=C%11C8(CC(CC)CCCC)CC(CC)CCCC)C(F)=C6,1461.6,PTQ10,5.54,2.98,2.56,FC1=C(C2=CC=C(C)S2)C3=NC(OCC(CCCCCC)CCCCCCCC)=CN=C3C(C)=C1F,82.11,39.1,2.1,1.2,1,CF,DIO,100,,,,
1264,544,2019,11.75,11.6,18.13,0.7206,0.89,HC-PCIC,5.54,3.87,1.67,O=C(C(C=C(Cl)C(Cl)=C1)=C1C/2=C(C#N)/C#N)C2=C/C3=CC(C4(CC(CC)CCCC)CC(CC)CCCC)=C(S3)C5=C4C=C(S5)C6=C(F)C=C(C(S7)=CC8=C7C(SC(/C=C9C(C(C=C(Cl)C(Cl)=C%10)=C%10C\9=C(C#N)\C#N)=O)=C%11)=C%11C8(CC(CC)CCCC)CC(CC)CCCC)C(F)=C6,1461.6,PBDB-TF,5.48,3.64,1.84,CC(SC1=C2C3=CC(F)=C(CC(CC)CCCC)S3)=CC1=C(C4=CC(F)=C(CC(CC)CCCC)S4)C5=C2C=C(S5)C6=CC=C(C7=C8C(C(C9=C(CC(CC)CCCC)SC(CC(CC)CCCC)=C9C8=O)=O)=C(C%10=CC=C(C)S%10)S7)S6,38.6,19.3,2,1,1.2,CF,CN,100,,,,
1265,544,2019,8.43,8.42,15.28,0.6187,0.89,DF-PCIC,5.49,2.98,2.51,O=C(C(C=CC=C1)=C1C/2=C(C#N)/C#N)C2=C/C3=CC(C4(CC(CC)CCCC)CC(CC)CCCC)=C(S3)C5=C4C=C(S5)C6=C(F)C=C(C(S7)=CC8=C7C(SC(/C=C9C(C(C=CC=C%10)=C%10C\9=C(C#N)\C#N)=O)=C%11)=C%11C8(CC(CC)CCCC)CC(CC)CCCC)C(F)=C6,1323.84,PBDB-T,5.33,3.53,1.8,CC(SC1=C2C3=CC=C(CC(CC)CCCC)S3)=CC1=C(C4=CC=C(CC(CC)CCCC)S4)C5=C2C=C(S5)C6=CC=C(C7=C8C(C(C9=C(CC(CC)CCCC)SC(CC(CC)CCCC)=C9C8=O)=O)=C(C%10=CC=C(C)S%10)S7)S6,117,58.5,2,1,1.2,CF,CN,130,,,,
1266,544,2019,8.32,8.29,15.02,0.6112,0.9,FO-PCIC,5.49,3.75,1.74,O=C(C(C=C(F)C(OC)=C1)=C1C/2=C(C#N)/C#N)C2=C/C3=CC(C4(CC(CC)CCCC)CC(CC)CCCC)=C(S3)C5=C4C=C(S5)C6=C(F)C=C(C(S7)=CC8=C7C(SC(/C=C9C(C(C=C(OC)C(F)=C%10)=C%10C\9=C(C#N)\C#N)=O)=C%11)=C%11C8(CC(CC)CCCC)CC(CC)CCCC)C(F)=C6,1419.87,PBDB-T,5.33,3.53,1.8,CC(SC1=C2C3=CC=C(CC(CC)CCCC)S3)=CC1=C(C4=CC=C(CC(CC)CCCC)S4)C5=C2C=C(S5)C6=CC=C(C7=C8C(C(C9=C(CC(CC)CCCC)SC(CC(CC)CCCC)=C9C8=O)=O)=C(C%10=CC=C(C)S%10)S7)S6,117,58.5,2,1,1.2,CF,CN,130,,,,
1267,544,2019,9.03,8.52,17.53,0.6908,0.73,HC-PCIC,5.54,3.87,1.67,O=C(C(C=C(Cl)C(Cl)=C1)=C1C/2=C(C#N)/C#N)C2=C/C3=CC(C4(CC(CC)CCCC)CC(CC)CCCC)=C(S3)C5=C4C=C(S5)C6=C(F)C=C(C(S7)=CC8=C7C(SC(/C=C9C(C(C=C(Cl)C(Cl)=C%10)=C%10C\9=C(C#N)\C#N)=O)=C%11)=C%11C8(CC(CC)CCCC)CC(CC)CCCC)C(F)=C6,1461.6,PBDB-T,5.33,3.53,1.8,CC(SC1=C2C3=CC=C(CC(CC)CCCC)S3)=CC1=C(C4=CC=C(CC(CC)CCCC)S4)C5=C2C=C(S5)C6=CC=C(C7=C8C(C(C9=C(CC(CC)CCCC)SC(CC(CC)CCCC)=C9C8=O)=O)=C(C%10=CC=C(C)S%10)S7)S6,117,58.5,2,1,1.2,CF,CN,100,,,,
1268,545,2020,9.24,9.17,17.25,0.582,0.92,TPT10,5.52,3.99,1.53,O=C(C(C=C(Br)C=C1)=C1C/2=C(C#N)/C#N)C2=C/C3=C(CCCCCCCCCCC)C(SC4=C5N(CC(CC)CCCC)C6=C4C7=NSN=C7C8=C6N(CC(CC)CCCC)C9=C8SC%10=C9SC(/C=C%11/C(C%12=C(C%11=O)C=CC(Br)=C%12)=C(C#N)\C#N)=C%10CCCCCCCCCCC)=C5S3,1537.77,PTQ10,5.55,2.9,2.65,FC1=C(C2=CC=C(C)S2)C3=NC(OCC(CCCCCC)CCCCCCCC)=CN=C3C(C)=C1F,48.32,30.2,1.6,1,1.2,CF,CN,110,110,,,
1269,545,2020,16.32,16.09,24.79,0.748,0.88,TPT10,5.52,3.99,1.53,O=C(C(C=C(Br)C=C1)=C1C/2=C(C#N)/C#N)C2=C/C3=C(CCCCCCCCCCC)C(SC4=C5N(CC(CC)CCCC)C6=C4C7=NSN=C7C8=C6N(CC(CC)CCCC)C9=C8SC%10=C9SC(/C=C%11/C(C%12=C(C%11=O)C=CC(Br)=C%12)=C(C#N)\C#N)=C%10CCCCCCCCCCC)=C5S3,1537.77,PTQ11,5.52,2.76,2.76,CC(S1)=CC=C1C2=C(F)C(F)=C(C)C3=NC(C)=C(OCC(CCCCCCCC)CCCCCC)N=C23,74.76,35.6,2.1,1,1.2,CF,CN,110,110,,,
1270,546,2020,18.22,18.22,27.7,0.766,0.859,Y6,5.65,4.1,1.55,O=C(C(C=C(F)C(F)=C1)=C1C/2=C(C#N)/C#N)C2=C/C3=C(CCCCCCCCCCC)C(SC4=C5N(CC(CC)CCCC)C6=C4C7=NSN=C7C8=C6N(CC(CC)CCCC)C9=C8SC%10=C9SC(/C=C%11/C(C%12=C(C%11=O)C=C(F)C(F)=C%12)=C(C#N)\C#N)=C%10CCCCCCCCCCC)=C5S3,1451.94,D18,5.51,2.77,2.74,CC(SC1=C2C3=CC(F)=C(CC(CC)CCCC)S3)=CC1=C(C4=CC(F)=C(CC(CC)CCCC)S4)C5=C2C=C(C6=C(CC(CCCC)CCCCCC)C=C(C7=CC8=C(C(SC(C9=CC(CC(CCCC)CCCCCC)=C(C)S9)=C%10)=C%10C%11=NSN=C%118)S7)S6)S5,109.324,72.4,1.51,1,1.6,CF,NA,SVA-CF,103,,,
1271,547,2018,1.36,1.36,3.87,0.3669,0.96,TPTC,5.85,3.83,2.02,CCCCCCCCC1(CCCCCCCC)C(C=C(/C=C2C(C(C=CC=C3)=C3C\2=C(C#N)\C#N)=O)S4)=C4C5=C(O1)C=C6C(OC(CCCCCCCC)(CCCCCCCC)C7=C6SC(/C=C8/C(C9=C(C8=O)C=CC=C9)=C(C#N)/C#N)=C7)=C5,1155.61,PTQ10,5.54,2.98,2.56,FC1=C(C2=CC=C(C)S2)C3=NC(OCC(CCCCCC)CCCCCCCC)=CN=C3C(C)=C1F,82.11,39.1,2.1,1,1.5,CF,NA,120,100,,,
1272,547,2018,1.97,1.97,4.87,0.4256,0.95,TPTC,5.85,3.83,2.02,CCCCCCCCC1(CCCCCCCC)C(C=C(/C=C2C(C(C=CC=C3)=C3C\2=C(C#N)\C#N)=O)S4)=C4C5=C(O1)C=C6C(OC(CCCCCCCC)(CCCCCCCC)C7=C6SC(/C=C8/C(C9=C(C8=O)C=CC=C9)=C(C#N)/C#N)=C7)=C5,1156.61,PTQ10,5.54,2.98,2.56,FC1=C(C2=CC=C(C)S2)C3=NC(OCC(CCCCCC)CCCCCCCC)=CN=C3C(C)=C1F,82.11,39.1,2.1,1,1.5,CF,NA,120,100,,,
1273,547,2018,3.83,3.83,10.38,0.3879,0.95,TPTIC,5.67,3.89,1.78,CCCCCCCCC1(CCCCCCCC)C2=C(C3=C(O1)C=C(/C=C4C(C(C=CC=C5)=C5C\4=C(C#N)\C#N)=O)S3)C=C(C(CCCCCCCC)(CCCCCCCC)OC6=C7SC(/C=C8/C(C9=C(C8=O)C=CC=C9)=C(C#N)/C#N)=C6)C7=C2,1157.61,PTQ10,5.54,2.98,2.56,FC1=C(C2=CC=C(C)S2)C3=NC(OCC(CCCCCC)CCCCCCCC)=CN=C3C(C)=C1F,82.11,39.1,2.1,1,1.5,CF,NA,120,100,,,
1274,547,2018,10.42,10.42,17.17,0.6745,0.9,TPTIC,5.67,3.89,1.78,CCCCCCCCC1(CCCCCCCC)C2=C(C3=C(O1)C=C(/C=C4C(C(C=CC=C5)=C5C\4=C(C#N)\C#N)=O)S3)C=C(C(CCCCCCCC)(CCCCCCCC)OC6=C7SC(/C=C8/C(C9=C(C8=O)C=CC=C9)=C(C#N)/C#N)=C6)C7=C2,1158.61,PTQ10,5.54,2.98,2.56,FC1=C(C2=CC=C(C)S2)C3=NC(OCC(CCCCCC)CCCCCCCC)=CN=C3C(C)=C1F,82.11,39.1,2.1,1,1.5,CF,NA,120,100,,,
1275,548,2019,13.55,13.21,21.23,0.686,0.877,TPT10,5.52,3.99,1.53,O=C(C(C=C(Br)C=C1)=C1C/2=C(C#N)/C#N)C2=C/C3=C(CCCCCCCCCCC)C(SC4=C5N(CC(CC)CCCC)C6=C4C7=NSN=C7C8=C6N(CC(CC)CCCC)C9=C8SC%10=C9SC(/C=C%11/C(C%12=C(C%11=O)C=CC(Br)=C%12)=C(C#N)\C#N)=C%10CCCCCCCCCCC)=C5S3,1537.77,PM6,5.5,3.61,1.89,CC(SC1=C2C3=CC(F)=C(CC(CC)CCCC)S3)=CC1=C(C4=CC(F)=C(CC(CC)CCCC)S4)C5=C2C=C(S5)C6=CC=C(C7=C8C(C(C9=C(CC(CC)CCCC)SC(CC(CC)CCCC)=C9C8=O)=O)=C(C%10=CC=C(C)S%10)S7)S6,38.6,19.3,2,1,1.2,CF,DIO,110,,,,
1276,548,2019,16.26,15.95,23.91,0.73,0.899,TPT10,5.52,3.99,1.53,O=C(C(C=C(Br)C=C1)=C1C/2=C(C#N)/C#N)C2=C/C3=C(CCCCCCCCCCC)C(SC4=C5N(CC(CC)CCCC)C6=C4C7=NSN=C7C8=C6N(CC(CC)CCCC)C9=C8SC%10=C9SC(/C=C%11/C(C%12=C(C%11=O)C=CC(Br)=C%12)=C(C#N)\C#N)=C%10CCCCCCCCCCC)=C5S3,1537.77,PM6,5.5,3.61,1.89,CC(SC1=C2C3=CC(F)=C(CC(CC)CCCC)S3)=CC1=C(C4=CC(F)=C(CC(CC)CCCC)S4)C5=C2C=C(S5)C6=CC=C(C7=C8C(C(C9=C(CC(CC)CCCC)SC(CC(CC)CCCC)=C9C8=O)=O)=C(C%10=CC=C(C)S%10)S7)S6,38.6,19.3,2,1,1.2,CF,BDT-1,140,,,,
1277,548,2019,15.18,15.03,23.73,0.695,0.877,TPT10,5.52,3.99,1.53,O=C(C(C=C(Br)C=C1)=C1C/2=C(C#N)/C#N)C2=C/C3=C(CCCCCCCCCCC)C(SC4=C5N(CC(CC)CCCC)C6=C4C7=NSN=C7C8=C6N(CC(CC)CCCC)C9=C8SC%10=C9SC(/C=C%11/C(C%12=C(C%11=O)C=CC(Br)=C%12)=C(C#N)\C#N)=C%10CCCCCCCCCCC)=C5S3,1537.77,PM6,5.5,3.61,1.89,CC(SC1=C2C3=CC(F)=C(CC(CC)CCCC)S3)=CC1=C(C4=CC(F)=C(CC(CC)CCCC)S4)C5=C2C=C(S5)C6=CC=C(C7=C8C(C(C9=C(CC(CC)CCCC)SC(CC(CC)CCCC)=C9C8=O)=O)=C(C%10=CC=C(C)S%10)S7)S6,38.6,19.3,2,1,1.2,CF,BDT-2,140,,,,
1278,548,2019,10.86,10.57,22.03,0.621,0.754,TPT10,5.52,3.99,1.53,O=C(C(C=C(Br)C=C1)=C1C/2=C(C#N)/C#N)C2=C/C3=C(CCCCCCCCCCC)C(SC4=C5N(CC(CC)CCCC)C6=C4C7=NSN=C7C8=C6N(CC(CC)CCCC)C9=C8SC%10=C9SC(/C=C%11/C(C%12=C(C%11=O)C=CC(Br)=C%12)=C(C#N)\C#N)=C%10CCCCCCCCCCC)=C5S3,1537.77,PBDB-T,5.33,2.92,2.41,CC(SC1=C2C3=CC=C(CC(CC)CCCC)S3)=CC1=C(C4=CC=C(CC(CC)CCCC)S4)C5=C2C=C(S5)C6=CC=C(C7=C8C(C(C9=C(CC(CC)CCCC)SC(CC(CC)CCCC)=C9C8=O)=O)=C(C%10=CC=C(C)S%10)S7)S6,117,58.5,2,1,1.2,CF,DIO,110,,,,
1279,548,2019,13.41,13.2,23.73,0.688,0.783,TPT10,5.52,3.99,1.53,O=C(C(C=C(Br)C=C1)=C1C/2=C(C#N)/C#N)C2=C/C3=C(CCCCCCCCCCC)C(SC4=C5N(CC(CC)CCCC)C6=C4C7=NSN=C7C8=C6N(CC(CC)CCCC)C9=C8SC%10=C9SC(/C=C%11/C(C%12=C(C%11=O)C=CC(Br)=C%12)=C(C#N)\C#N)=C%10CCCCCCCCCCC)=C5S3,1537.77,PBDB-T,5.33,2.92,2.41,CC(SC1=C2C3=CC=C(CC(CC)CCCC)S3)=CC1=C(C4=CC=C(CC(CC)CCCC)S4)C5=C2C=C(S5)C6=CC=C(C7=C8C(C(C9=C(CC(CC)CCCC)SC(CC(CC)CCCC)=C9C8=O)=O)=C(C%10=CC=C(C)S%10)S7)S6,117,58.5,2,1,1.2,CF,BDT-1,140,,,,
1280,548,2019,12.6,12.35,21.53,0.683,0.813,TPT10,5.52,3.99,1.53,O=C(C(C=C(Br)C=C1)=C1C/2=C(C#N)/C#N)C2=C/C3=C(CCCCCCCCCCC)C(SC4=C5N(CC(CC)CCCC)C6=C4C7=NSN=C7C8=C6N(CC(CC)CCCC)C9=C8SC%10=C9SC(/C=C%11/C(C%12=C(C%11=O)C=CC(Br)=C%12)=C(C#N)\C#N)=C%10CCCCCCCCCCC)=C5S3,1537.77,PBDB-T,5.33,2.92,2.41,CC(SC1=C2C3=CC=C(CC(CC)CCCC)S3)=CC1=C(C4=CC=C(CC(CC)CCCC)S4)C5=C2C=C(S5)C6=CC=C(C7=C8C(C(C9=C(CC(CC)CCCC)SC(CC(CC)CCCC)=C9C8=O)=O)=C(C%10=CC=C(C)S%10)S7)S6,117,58.5,2,1,1.2,CF,BDT-2,140,,,,
1281,548,2019,9.21,9.05,15.23,0.638,0.883,TPT10,5.52,3.99,1.53,O=C(C(C=C(Br)C=C1)=C1C/2=C(C#N)/C#N)C2=C/C3=C(CCCCCCCCCCC)C(SC4=C5N(CC(CC)CCCC)C6=C4C7=NSN=C7C8=C6N(CC(CC)CCCC)C9=C8SC%10=C9SC(/C=C%11/C(C%12=C(C%11=O)C=CC(Br)=C%12)=C(C#N)\C#N)=C%10CCCCCCCCCCC)=C5S3,1537.77,PTQ10,5.54,3.99,1.55,FC1=C(C2=CC=C(C)S2)C3=NC(OCC(CCCCCC)CCCCCCCC)=CN=C3C(C)=C1F,82.11,39.1,2.1,1,1.2,CF,DIO,70,,,,
1282,548,2019,13.14,12.85,21.15,0.662,0.89,TPT10,5.52,3.99,1.53,O=C(C(C=C(Br)C=C1)=C1C/2=C(C#N)/C#N)C2=C/C3=C(CCCCCCCCCCC)C(SC4=C5N(CC(CC)CCCC)C6=C4C7=NSN=C7C8=C6N(CC(CC)CCCC)C9=C8SC%10=C9SC(/C=C%11/C(C%12=C(C%11=O)C=CC(Br)=C%12)=C(C#N)\C#N)=C%10CCCCCCCCCCC)=C5S3,1537.77,PTQ10,5.54,3.99,1.55,FC1=C(C2=CC=C(C)S2)C3=NC(OCC(CCCCCC)CCCCCCCC)=CN=C3C(C)=C1F,82.11,39.1,2.1,1,1.2,CF,BDT-1,140,,,,
1283,548,2019,12.37,12.13,19.73,0.668,0.873,TPT10,5.52,3.99,1.53,O=C(C(C=C(Br)C=C1)=C1C/2=C(C#N)/C#N)C2=C/C3=C(CCCCCCCCCCC)C(SC4=C5N(CC(CC)CCCC)C6=C4C7=NSN=C7C8=C6N(CC(CC)CCCC)C9=C8SC%10=C9SC(/C=C%11/C(C%12=C(C%11=O)C=CC(Br)=C%12)=C(C#N)\C#N)=C%10CCCCCCCCCCC)=C5S3,1537.77,PTQ10,5.54,3.99,1.55,FC1=C(C2=CC=C(C)S2)C3=NC(OCC(CCCCCC)CCCCCCCC)=CN=C3C(C)=C1F,82.11,39.1,2.1,1,1.2,CF,BDT-2,140,,,,
1284,549,2020,2.28,2.17,5.85,0.3866,1.01,SubNeTI-9a,5.62,3.9,1.72,ClB1N2/C3=N\C(C4=C/5C=C(C=C(C(N(C6=C(C(C)C)C=CC=C6C(C)C)C7=O)=O)C7=C8)C8=C4)=NC5=N/C(N91)=C%10C(C=C(C=C(C(N(C%11=C(C(C)C)C=CC=C%11C(C)C)C%12=O)=O)C%12=C%13)C%13=C%10)=C9N=C2C%14=C3C=C(C=C(C(N(C%15=C(C(C)C)C=CC=C%15C(C)C)C%16=O)=O)C%16=C%17)C%17=C%14,1268.68,PTQ10,5.54,2.98,2.56,FC1=C(C2=CC=C(C)S2)C3=NC(OCC(CCCCCC)CCCCCCCC)=CN=C3C(C)=C1F,82.11,39.1,2.1,1,1,CB,NA,NA,90,,,
1285,549,2020,3.88,3.82,9.52,0.3976,1.02,SubNeTI-9a,5.62,3.9,1.72,ClB1N2/C3=N\C(C4=C/5C=C(C=C(C(N(C6=C(C(C)C)C=CC=C6C(C)C)C7=O)=O)C7=C8)C8=C4)=NC5=N/C(N91)=C%10C(C=C(C=C(C(N(C%11=C(C(C)C)C=CC=C%11C(C)C)C%12=O)=O)C%12=C%13)C%13=C%10)=C9N=C2C%14=C3C=C(C=C(C(N(C%15=C(C(C)C)C=CC=C%15C(C)C)C%16=O)=O)C%16=C%17)C%17=C%14,1268.68,PTQ10,5.54,2.98,2.56,FC1=C(C2=CC=C(C)S2)C3=NC(OCC(CCCCCC)CCCCCCCC)=CN=C3C(C)=C1F,82.11,39.1,2.1,1,1,CB,DIO/DPE,NA,90,,,
1286,549,2020,4.51,4.36,9.5,0.4273,1.11,SubNeTI-9b,5.59,3.86,1.73,ClB1N2/C3=N\C(C4=C/5C=C(C=C(C(N(C(CCCCC)CCCCC)C6=O)=O)C6=C7)C7=C4)=NC5=N/C(N81)=C9C(C=C(C=C(C(N(C(CCCCC)CCCCC)C%10=O)=O)C%10=C%11)C%11=C9)=C8N=C2C%12=C3C=C(C=C(C(N(C(CCCCC)CCCCC)C%13=O)=O)C%13=C%14)C%14=C%12,1250.79,PTQ10,5.54,2.98,2.56,FC1=C(C2=CC=C(C)S2)C3=NC(OCC(CCCCCC)CCCCCCCC)=CN=C3C(C)=C1F,82.11,39.1,2.1,1,1,CB,NA,NA,90,,,
1287,549,2020,6.25,6.08,13.98,0.4134,1.08,SubNeTI-9b,5.59,3.86,1.73,ClB1N2/C3=N\C(C4=C/5C=C(C=C(C(N(C(CCCCC)CCCCC)C6=O)=O)C6=C7)C7=C4)=NC5=N/C(N81)=C9C(C=C(C=C(C(N(C(CCCCC)CCCCC)C%10=O)=O)C%10=C%11)C%11=C9)=C8N=C2C%12=C3C=C(C=C(C(N(C(CCCCC)CCCCC)C%13=O)=O)C%13=C%14)C%14=C%12,1250.79,PTQ10,5.54,2.98,2.56,FC1=C(C2=CC=C(C)S2)C3=NC(OCC(CCCCCC)CCCCCCCC)=CN=C3C(C)=C1F,82.11,39.1,2.1,1,1,CB,DIO/DPE,NA,90,,,
1288,549,2020,1.89,1.8,4.92,0.3741,1.03,SubNeTI-10a,5.56,3.83,1.73,FB1N2/C3=N\C(C4=C/5C=C(C=C(C(N(C(CCCCC)CCCCC)C6=O)=O)C6=C7)C7=C4)=NC5=N/C(N81)=C9C(C=C(C=C(C(N(C(CCCCC)CCCCC)C%10=O)=O)C%10=C%11)C%11=C9)=C8N=C2C%12=C3C=C(C=C(C(N(C(CCCCC)CCCCC)C%13=O)=O)C%13=C%14)C%14=C%12,1234.34,PTQ10,5.54,2.98,2.56,FC1=C(C2=CC=C(C)S2)C3=NC(OCC(CCCCCC)CCCCCCCC)=CN=C3C(C)=C1F,82.11,39.1,2.1,1,1,CB,NA,NA,90,,,
1289,549,2020,3.28,3.2,8.1,0.3981,1.02,SubNeTI-10a,5.56,3.83,1.73,FB1N2/C3=N\C(C4=C/5C=C(C=C(C(N(C(CCCCC)CCCCC)C6=O)=O)C6=C7)C7=C4)=NC5=N/C(N81)=C9C(C=C(C=C(C(N(C(CCCCC)CCCCC)C%10=O)=O)C%10=C%11)C%11=C9)=C8N=C2C%12=C3C=C(C=C(C(N(C(CCCCC)CCCCC)C%13=O)=O)C%13=C%14)C%14=C%12,1234.34,PTQ10,5.54,2.98,2.56,FC1=C(C2=CC=C(C)S2)C3=NC(OCC(CCCCCC)CCCCCCCC)=CN=C3C(C)=C1F,82.11,39.1,2.1,1,1,CB,DIO/DPE,NA,90,,,
1290,549,2020,1.51,1.44,4.18,0.3309,1.09,SubNeTI-10b,5.52,3.79,1.73,O=C(N(C(CCCCC)CCCCC)C1=O)C(C1=C2)=CC(C2=C3)=CC4=C3C5=N/C4=N\C(N67)=C8C(C=C(C=C(C(N(C(CCCCC)CCCCC)C9=O)=O)C9=C%10)C%10=C8)=C6N=C%11N(B7OC%12=CC=CC=C%12)/C(C%13=C%11C=C%14C(C=C(C(N(C(CCCCC)CCCCC)C%15=O)=O)C%15=C%14)=C%13)=N\5,1308.45,PTQ10,5.54,2.98,2.56,FC1=C(C2=CC=C(C)S2)C3=NC(OCC(CCCCCC)CCCCCCCC)=CN=C3C(C)=C1F,82.11,39.1,2.1,1,1,CB,NA,NA,90,,,
1291,549,2020,1.99,1.95,4.73,0.381,1.1,SubNeTI-10b,5.52,3.79,1.73,O=C(N(C(CCCCC)CCCCC)C1=O)C(C1=C2)=CC(C2=C3)=CC4=C3C5=N/C4=N\C(N67)=C8C(C=C(C=C(C(N(C(CCCCC)CCCCC)C9=O)=O)C9=C%10)C%10=C8)=C6N=C%11N(B7OC%12=CC=CC=C%12)/C(C%13=C%11C=C%14C(C=C(C(N(C(CCCCC)CCCCC)C%15=O)=O)C%15=C%14)=C%13)=N\5,1308.45,PTQ10,5.54,2.98,2.56,FC1=C(C2=CC=C(C)S2)C3=NC(OCC(CCCCCC)CCCCCCCC)=CN=C3C(C)=C1F,82.11,39.1,2.1,1,1,CB,DIO/DPE,NA,90,,,
1292,550,2020,12.43,11.94,19.01,0.7073,0.92,HO-IDIC-2F,5.81,3.91,1.9,O=C(C(C=C(F)C=C1)=C1C/2=C(C#N)\C#N)C2=C/C(S3)=CC4=C3C5=C(C4(CCCCCC)CCCCCC)C(OCCCCCC)=C6C(C(CCCCCC)(CCCCCC)C7=C6SC(/C=C8C(C(C=CC(F)=C9)=C9C\8=C(C#N)/C#N)=O)=C7)=C5OCCCCCC,1247.7,PTQ10,5.54,2.98,2.56,FC1=C(C2=CC=C(C)S2)C3=NC(OCC(CCCCCC)CCCCCCCC)=CN=C3C(C)=C1F,82.11,39.1,2.1,1,1,CF,NA,NA,,,,
1293,550,2020,12.32,11.9,19.28,0.718,0.89,HO-IDIC-2F,5.81,3.91,1.9,O=C(C(C=C(F)C=C1)=C1C/2=C(C#N)\C#N)C2=C/C(S3)=CC4=C3C5=C(C4(CCCCCC)CCCCCC)C(OCCCCCC)=C6C(C(CCCCCC)(CCCCCC)C7=C6SC(/C=C8C(C(C=CC(F)=C9)=C9C\8=C(C#N)/C#N)=O)=C7)=C5OCCCCCC,1247.7,PTQ10,5.54,2.98,2.56,FC1=C(C2=CC=C(C)S2)C3=NC(OCC(CCCCCC)CCCCCCCC)=CN=C3C(C)=C1F,82.11,39.1,2.1,1,1,CF,NA,NA,,,,
1294,551,2020,5.5,5.5,8.2,0.55,1.21,tPDI2N-EH,5.9,3.6,2.3,O=C(N(C(CC)CC)C1=O)C2=CC=C3C4=C(C5=C(N6CC(CC)CCCC)C=C(C(N(C(CC)CC)C7=O)=O)C8=C7C=C(C9=CC%10=C%11C(C%12=C(N%13CC(CC)CCCC)C=C%11C(N(C(CC)CC)C%10=O)=O)=C9C%14=CC=C(C(N(C(CC)CC)C%15=O)=O)C%16=C%15C=C%13C%12=C%14%16)C3=C58)C6=CC1=C42,1309.66,PTQ10,5.6,3,2.6,FC1=C(C2=CC=C(C)S2)C3=NC(OCC(CCCCCC)CCCCCCCC)=CN=C3C(C)=C1F,82.11,39.1,2.1,1,1,TL,DPE,NA,,,,
1295,551,2020,5.3,5.3,8,0.54,1.22,tPDI2N-EH,5.9,3.6,2.3,O=C(N(C(CC)CC)C1=O)C2=CC=C3C4=C(C5=C(N6CC(CC)CCCC)C=C(C(N(C(CC)CC)C7=O)=O)C8=C7C=C(C9=CC%10=C%11C(C%12=C(N%13CC(CC)CCCC)C=C%11C(N(C(CC)CC)C%10=O)=O)=C9C%14=CC=C(C(N(C(CC)CC)C%15=O)=O)C%16=C%15C=C%13C%12=C%14%16)C3=C58)C6=CC1=C42,1309.66,PTQ10,5.6,3,2.6,FC1=C(C2=CC=C(C)S2)C3=NC(OCC(CCCCCC)CCCCCCCC)=CN=C3C(C)=C1F,82.11,39.1,2.1,1,1,OX,DPE,NA,,,,
1296,551,2020,5,5,8.3,0.5,1.21,tPDI2N-EH,5.9,3.6,2.3,O=C(N(C(CC)CC)C1=O)C2=CC=C3C4=C(C5=C(N6CC(CC)CCCC)C=C(C(N(C(CC)CC)C7=O)=O)C8=C7C=C(C9=CC%10=C%11C(C%12=C(N%13CC(CC)CCCC)C=C%11C(N(C(CC)CC)C%10=O)=O)=C9C%14=CC=C(C(N(C(CC)CC)C%15=O)=O)C%16=C%15C=C%13C%12=C%14%16)C3=C58)C6=CC1=C42,1309.66,PTQ10,5.6,3,2.6,FC1=C(C2=CC=C(C)S2)C3=NC(OCC(CCCCCC)CCCCCCCC)=CN=C3C(C)=C1F,82.11,39.1,2.1,1,1,TMB,DPE,NA,,,,
1297,552,2020,10.4,10.4,18.2,0.63,0.91,TPD8,5.6,4.14,1.46,CCCCCCC(C=C1)=CC=C1C(C2=C3SC(C4=C5C(C(N(CCCCCCCC)C5=O)=O)=C(/C=C6C(C(C=CC=C7)=C7C\6=C(C#N)\C#N)=O)S4)=C2)(C8=CC=C(CCCCCC)C=C8)C9=C3C=C(C(C%10=C%11SC(C%12=C%13C(C(N(CCCCCCCC)C%13=O)=O)=C(/C=C%14/C(C%15=C(C%14=O)C=CC=C%15)=C(C#N)/C#N)S%12)=C%10)(C%16=CC=C(CCCCCC)C=C%16)C%17=CC=C(CCCCCC)C=C%17)C%11=C9,1842.5,PTQ10,5.54,2.98,2.56,FC1=C(C2=CC=C(C)S2)C3=NC(OCC(CCCCCC)CCCCCCCC)=CN=C3C(C)=C1F,82.11,39.1,2.1,1,1.5,CF,DIO,180,105,,,
1298,553,2020,13.13,12.86,20.11,0.689,0.93,ZITI-C,5.65,3.81,1.84,O=C1C2=C(C(/C1=C/C3=CC(CC4=CC5=C6C7=C(C5(CC(CCCC)CCCCCC)CC(CCCC)CCCCCC)C8=C(C=C9CC%10=C(C9=C8)SC(/C=C%11/C(C%12=C(C%11=O)C=C(F)C(F)=C%12)=C(C#N)\C#N)=C%10)C7(CC(CCCC)CCCCCC)CC(CCCC)CCCCCC)=C(C4=C6)S3)=C(C#N)\C#N)C=C(F)C(F)=C2,1546.17,PTQ10,5.6,3.52,2.08,FC1=C(C2=CC=C(C)S2)C3=NC(OCC(CCCCCC)CCCCCCCC)=CN=C3C(C)=C1F,82.11,39.1,2.1,1,1,CF,NA,120,,,,
1299,553,2020,7.39,6.7,11.88,0.577,0.93,ZITI-N,5.53,3.82,1.71,O=C1C2=C(C(/C1=C/C3=CC(N(C)C4=CC5=C6C7=C(C5(CC(CCCC)CCCCCC)CC(CCCC)CCCCCC)C8=C(C=C9N(C)C%10=C(C9=C8)SC(/C=C%11/C(C%12=C(C%11=O)C=C(F)C(F)=C%12)=C(C#N)\C#N)=C%10)C7(CC(CCCC)CCCCCC)CC(CCCC)CCCCCC)=C(C4=C6)S3)=C(C#N)\C#N)C=C(F)C(F)=C2,1576.2,PTQ10,5.6,3.52,2.08,FC1=C(C2=CC=C(C)S2)C3=NC(OCC(CCCCCC)CCCCCCCC)=CN=C3C(C)=C1F,82.11,39.1,2.1,1,1,CF,NA,120,,,,
1300,554,2020,15.37,15.17,25.22,0.7249,0.84,Y6,5.65,4.1,1.55,O=C(C(C=C(F)C(F)=C1)=C1C/2=C(C#N)/C#N)C2=C/C3=C(CCCCCCCCCCC)C(SC4=C5N(CC(CC)CCCC)C6=C4C7=NSN=C7C8=C6N(CC(CC)CCCC)C9=C8SC%10=C9SC(/C=C%11/C(C%12=C(C%11=O)C=C(F)C(F)=C%12)=C(C#N)\C#N)=C%10CCCCCCCCCCC)=C5S3,1451.94,PTQ10,5.54,2.98,2.56,FC1=C(C2=CC=C(C)S2)C3=NC(OCC(CCCCCC)CCCCCCCC)=CN=C3C(C)=C1F,82.11,39.1,2.1,1,1,CF,NA,NA,,,,
1301,554,2020,15.38,15.18,25.67,0.7074,0.847,Y6-2Cl,5.68,4.12,1.56,CCCCC(CN1C2=C(C3=C1C(SC(/C=C4/C(C5=C(C4=O)C=C(Cl)C(Cl)=C5)=C(C#N)\C#N)=C6CCCCCCCCCCC)=C6S3)C7=NSN=C7C8=C2N(C9=C8SC%10=C9SC(/C=C%11C(C(C=C(Cl)C(Cl)=C%12)=C%12C\%11=C(C#N)\C#N)=O)=C%10CCCCCCCCCCC)CC(CCCC)CC)CC,1517.74,PTQ10,5.54,2.98,2.56,FC1=C(C2=CC=C(C)S2)C3=NC(OCC(CCCCCC)CCCCCCCC)=CN=C3C(C)=C1F,82.11,39.1,2.1,1,1,CF,NA,NA,,,,
1302,554,2020,13.62,13.42,22.62,0.7032,0.855,Y6,5.65,4.1,1.55,O=C(C(C=C(F)C(F)=C1)=C1C/2=C(C#N)/C#N)C2=C/C3=C(CCCCCCCCCCC)C(SC4=C5N(CC(CC)CCCC)C6=C4C7=NSN=C7C8=C6N(CC(CC)CCCC)C9=C8SC%10=C9SC(/C=C%11/C(C%12=C(C%11=O)C=C(F)C(F)=C%12)=C(C#N)\C#N)=C%10CCCCCCCCCCC)=C5S3,1451.94,PTQ10,5.54,2.98,2.56,FC1=C(C2=CC=C(C)S2)C3=NC(OCC(CCCCCC)CCCCCCCC)=CN=C3C(C)=C1F,82.11,39.1,2.1,1,1,CF,NA,NA,,,,
1303,554,2020,15.59,15.39,25.76,0.7169,0.844,Y6-C2,5.68,4.06,1.62,O=C(C(C=C(F)C(F)=C1)=C1C/2=C(C#N)/C#N)C2=C/C3=C(CCCCCCCCCCC)C(SC4=C5N(CCC(CC)CCCC)C6=C4C7=NSN=C7C8=C6N(CCC(CC)CCCC)C9=C8SC%10=C9SC(/C=C%11/C(C%12=C(C%11=O)C=C(F)C(F)=C%12)=C(C#N)\C#N)=C%10CCCCCCCCCCC)=C5S3,1479.99,PTQ10,5.54,2.98,2.56,FC1=C(C2=CC=C(C)S2)C3=NC(OCC(CCCCCC)CCCCCCCC)=CN=C3C(C)=C1F,82.11,39.1,2.1,1,1,CF,NA,NA,,,,
1304,555,2021,15.5,15.3,25.4,0.702,0.84,Y6,5.65,4.1,1.55,O=C(C(C=C(F)C(F)=C1)=C1C/2=C(C#N)/C#N)C2=C/C3=C(CCCCCCCCCCC)C(SC4=C5N(CC(CC)CCCC)C6=C4C7=NSN=C7C8=C6N(CC(CC)CCCC)C9=C8SC%10=C9SC(/C=C%11/C(C%12=C(C%11=O)C=C(F)C(F)=C%12)=C(C#N)\C#N)=C%10CCCCCCCCCCC)=C5S3,1451.94,PM6,5.5,3.61,1.89,CC(SC1=C2C3=CC(F)=C(CC(CC)CCCC)S3)=CC1=C(C4=CC(F)=C(CC(CC)CCCC)S4)C5=C2C=C(S5)C6=CC=C(C7=C8C(C(C9=C(CC(CC)CCCC)SC(CC(CC)CCCC)=C9C8=O)=O)=C(C%10=CC=C(C)S%10)S7)S6,38.6,19.3,2,1,1,CF,CN,110,,,,
1305,555,2021,15,14.8,14.9,0.693,0.86,Y6,5.65,4.1,1.55,O=C(C(C=C(F)C(F)=C1)=C1C/2=C(C#N)/C#N)C2=C/C3=C(CCCCCCCCCCC)C(SC4=C5N(CC(CC)CCCC)C6=C4C7=NSN=C7C8=C6N(CC(CC)CCCC)C9=C8SC%10=C9SC(/C=C%11/C(C%12=C(C%11=O)C=C(F)C(F)=C%12)=C(C#N)\C#N)=C%10CCCCCCCCCCC)=C5S3,1451.94,PTQ10,5.54,2.98,2.56,FC1=C(C2=CC=C(C)S2)C3=NC(OCC(CCCCCC)CCCCCCCC)=CN=C3C(C)=C1F,82.11,39.1,2.1,1,1,CF,CN,130,,,,
1306,555,2021,14,13.8,14.4,0.656,0.83,Y1-4F,5.56,4.11,1.45,O=C(C(C=C(F)C(F)=C1)=C1C/2=C(C#N)/C#N)C2=C/C3=CC(SC4=C5N(CC(CC)CCCC)C6=C4C7=NN(CC(CC)CCCC)N=C7C8=C6N(CC(CC)CCCC)C9=C8SC%10=C9SC(/C=C%11/C(C%12=C(C%11=O)C=C(F)C(F)=C%12)=C(C#N)\C#N)=C%10)=C5S3,1238.51,PM7,5.52,3.57,1.95,CC(SC1=C2C3=CC(Cl)=C(CC(CC)CCCC)S3)=CC1=C(C4=CC(Cl)=C(CC(CC)CCCC)S4)C5=C2C=C(S5)C6=CC=C(C7=C8C(C(C9=C(CC(CC)CCCC)SC(CC(CC)CCCC)=C9C8=O)=O)=C(C%10=CC=C(C)S%10)S7)S6,44.88,25.5,1.76,1,1,CF,CN,110,,,,
1307,555,2021,6.9,6.8,15.3,0.528,0.85,Y1-4F,5.56,4.11,1.45,O=C(C(C=C(F)C(F)=C1)=C1C/2=C(C#N)/C#N)C2=C/C3=CC(SC4=C5N(CC(CC)CCCC)C6=C4C7=NN(CC(CC)CCCC)N=C7C8=C6N(CC(CC)CCCC)C9=C8SC%10=C9SC(/C=C%11/C(C%12=C(C%11=O)C=C(F)C(F)=C%12)=C(C#N)\C#N)=C%10)=C5S3,1238.51,PTQ10,5.54,2.98,2.56,FC1=C(C2=CC=C(C)S2)C3=NC(OCC(CCCCCC)CCCCCCCC)=CN=C3C(C)=C1F,82.11,39.1,2.1,1,1,CF,CN,130,,,,
1308,556,2018,10.41,10.14,15.7,0.6489,0.995,IDIC,5.74,3.9,1.84,O=C(C(C=CC=C1)=C1C/2=C(C#N)\C#N)C2=C/C(S3)=CC4=C3C5=C(C4(CCCCCC)CCCCCC)C=C6C(C(CCCCCC)(CCCCCC)C7=C6SC(/C=C8C(C(C=CC=C9)=C9C\8=C(C#N)/C#N)=O)=C7)=C5,1011.4,PTQ10,5.54,2.98,2.56,FC1=C(C2=CC=C(C)S2)C3=NC(OCC(CCCCCC)CCCCCCCC)=CN=C3C(C)=C1F,82.11,39.1,2.1,1,1,CF,NA,140,130,,,
1309,556,2018,11.65,11.43,16.61,0.7155,0.962,IDIC,5.74,3.9,1.84,O=C(C(C=CC=C1)=C1C/2=C(C#N)\C#N)C2=C/C(S3)=CC4=C3C5=C(C4(CCCCCC)CCCCCC)C=C6C(C(CCCCCC)(CCCCCC)C7=C6SC(/C=C8C(C(C=CC=C9)=C9C\8=C(C#N)/C#N)=O)=C7)=C5,1011.4,PTQ10,5.54,2.98,2.56,FC1=C(C2=CC=C(C)S2)C3=NC(OCC(CCCCCC)CCCCCCCC)=CN=C3C(C)=C1F,82.11,39.1,2.1,1,1,CF,NA,140,130,,,