ID,Ref,year,PCE_max(%),PCE_ave(%),Jsc(mA/cm2),FF,Voc(V),Nickname(n),-HOMO_n(eV),-LUMO_n(eV),Eg_n(eV),n(SMILES),M (g/mol),Nickname(p),-HOMO_p(eV),-LUMO_p(eV),Eg_p(eV),p(SMILES),Mw (kg/mol),Mn(kg/mol),PDI,p/n ratio (p),p/n ratio (n),Solvent,Additive,TA (oC),thick (nm),,Journal,DOI
599,266,2019,9.4,9.2,16.8,0.654,0.84,ArSiID-F,5.42,3.9,1.52,O=C(C(C=C(F)C(F)=C1)=C1C/2=C(C#N)\C#N)C2=C/C3=CC([Si]4(CCCCCCCCC)CCCCCCCC)=C(S3)C5=C4C6=C(CCCCCC)C(SC7=C8[Si](CCCCCCCC)(CCCCCCCC)C9=C7SC(/C=C%10C(C(C=C(F)C(F)=C%11)=C%11C\%10=C(C#N)\C#N)=O)=C9)=C8C(CCCCCC)=C6S5,1522.24,PBDB-T,5.33,3.29,2.04,CC(SC1=C2C3=CC=C(CC(CC)CCCC)S3)=CC1=C(C4=CC=C(CC(CC)CCCC)S4)C5=C2C=C(S5)C6=CC=C(C7=C8C(C(C9=C(CC(CC)CCCC)SC(CC(CC)CCCC)=C9C8=O)=O)=C(C%10=CC=C(C)S%10)S7)S6,117,58.5,2,1,1,CF,CN,NA,100,,,
600,266,2019,7.9,7.7,16.4,0.6,0.79,ArSiID-Cl,5.45,4.01,1.44,O=C(C(C=C(Cl)C(Cl)=C1)=C1C/2=C(C#N)\C#N)C2=C/C3=CC([Si]4(CCCCCCCCC)CCCCCCCC)=C(S3)C5=C4C6=C(CCCCCC)C(SC7=C8[Si](CCCCCCCC)(CCCCCCCC)C9=C7SC(/C=C%10C(C(C=C(Cl)C(Cl)=C%11)=C%11C\%10=C(C#N)\C#N)=O)=C9)=C8C(CCCCCC)=C6S5,1588.04,PBDB-T,5.33,3.29,2.04,CC(SC1=C2C3=CC=C(CC(CC)CCCC)S3)=CC1=C(C4=CC=C(CC(CC)CCCC)S4)C5=C2C=C(S5)C6=CC=C(C7=C8C(C(C9=C(CC(CC)CCCC)SC(CC(CC)CCCC)=C9C8=O)=O)=C(C%10=CC=C(C)S%10)S7)S6,117,58.5,2,1,1,CF,CN,NA,100,,,
601,267,2019,2.131,2.131,5.775,0.39,0.95,ITIC,5.6,4.05,1.55,CCCCCCC(C=C1)=CC=C1C2(C3=CC=C(CCCCCC)C=C3)C4=CC5=C(C(C6=C5SC7=C6SC(/C=C8C(C(C=CC=C9)=C9C\8=C(C#N)\C#N)=O)=C7)(C%10=CC=C(CCCCCC)C=C%10)C%11=CC=C(CCCCCC)C=C%11)C=C4C%12=C2C(SC(/C=C%13C(C(C=CC=C%14)=C%14C\%13=C(C#N)/C#N)=O)=C%15)=C%15S%12,1427.96,PT1,5.46,3.57,1.89,CCCCC(CC)CC(S1)=CC=C1C2=C3C(C=C(C(S4)=C(C(C5=C(CCCCCCCC)SC(CCCCCCCC)=C5C6=O)=O)C6=C4C)S3)=C(C7=CC=C(CC(CC)CCCC)S7)C8=C2C=C(C)S8,32.5,16.2,2.00617284,1,1.5,CB,NA,100,,,,
602,267,2019,9.008,9.008,16.331,0.64,0.84,ITIC,5.6,4.05,1.55,CCCCCCC(C=C1)=CC=C1C2(C3=CC=C(CCCCCC)C=C3)C4=CC5=C(C(C6=C5SC7=C6SC(/C=C8C(C(C=CC=C9)=C9C\8=C(C#N)\C#N)=O)=C7)(C%10=CC=C(CCCCCC)C=C%10)C%11=CC=C(CCCCCC)C=C%11)C=C4C%12=C2C(SC(/C=C%13C(C(C=CC=C%14)=C%14C\%13=C(C#N)/C#N)=O)=C%15)=C%15S%12,1427.96,PT2,5.35,3.58,1.77,CCCCC(CC)CC(S1)=CC=C1C2=C3C(C=C(C(S4)=CC=C4C(S5)=C(C(C6=C(CCCCCCCC)SC(CCCCCCCC)=C6C7=O)=O)C7=C5C8=CC=C(C)S8)S3)=C(C9=CC=C(CC(CC)CCCC)S9)C%10=C2C=C(C)S%10,169.5,66.4,2.552710843,1,1.5,CB,NA,100,,,,
603,267,2019,9.219,9.219,15.521,0.68,0.88,ITIC,5.6,4.05,1.55,CCCCCCC(C=C1)=CC=C1C2(C3=CC=C(CCCCCC)C=C3)C4=CC5=C(C(C6=C5SC7=C6SC(/C=C8C(C(C=CC=C9)=C9C\8=C(C#N)\C#N)=O)=C7)(C%10=CC=C(CCCCCC)C=C%10)C%11=CC=C(CCCCCC)C=C%11)C=C4C%12=C2C(SC(/C=C%13C(C(C=CC=C%14)=C%14C\%13=C(C#N)/C#N)=O)=C%15)=C%15S%12,1427.96,PT3,5.37,3.54,1.83,CCCCC(CC)CC(S1)=CC=C1C2=C3C(C=C(C4=C(CCCCCC)C(S5)=C(S4)C=C5C(S6)=C(C(C7=C(CCCCCCCC)SC(CCCCCCCC)=C7C8=O)=O)C8=C6C9=CC%10=C(C(CCCCCC)=C(C)S%10)S9)S3)=C(C%11=CC=C(CC(CC)CCCC)S%11)C%12=C2C=C(C)S%12,153.2,66.6,2.3003003,1,1.5,CB,NA,100,,,,
604,268,2019,10.12,9.91,15.91,0.7,0.88,IDT-OB,5.77,3.87,1.9,CCCCCCC(C=C1)=CC=C1C2(CCCCCCCC)C3=CC4=C(C(C5=C4SC(/C=C6C(C(C=CC(C)=C7)=C7C\6=C(C#N)\C#N)=O)=C5)(CCCCCCCC)C8=CC=C(CCCCCC)C=C8)C=C3C9=C2C=C(/C=C%10C(C(C=CC(C)=C%11)=C%11C\%10=C(C#N)/C#N)=O)S9,1247.76,PBDB-T,5.33,3.53,1.8,CC(SC1=C2C3=CC=C(CC(CC)CCCC)S3)=CC1=C(C4=CC=C(CC(CC)CCCC)S4)C5=C2C=C(S5)C6=CC=C(C7=C8C(C(C9=C(CC(CC)CCCC)SC(CC(CC)CCCC)=C9C8=O)=O)=C(C%10=CC=C(C)S%10)S7)S6,117,58.5,2,1,1,DCB,DIO,NA,150,,,
605,268,2019,11.19,11.01,16.41,0.74,0.91,IDTT-OB,5.59,3.88,1.71,CCCCCCC(C=C1)=CC=C1C2(CCCCCCCC)C3=CC4=C(C(C5=C4SC6=C5SC(/C=C7C(C(C=CC(C)=C8)=C8C\7=C(C#N)\C#N)=O)=C6)(CCCCCCCC)C9=CC=C(CCCCCC)C=C9)C=C3C%10=C2C(SC(/C=C%11C(C(C=CC(C)=C%12)=C%12C\%11=C(C#N)/C#N)=O)=C%13)=C%13S%10,1359.92,PBDB-T,5.33,3.53,1.8,CC(SC1=C2C3=CC=C(CC(CC)CCCC)S3)=CC1=C(C4=CC=C(CC(CC)CCCC)S4)C5=C2C=C(S5)C6=CC=C(C7=C8C(C(C9=C(CC(CC)CCCC)SC(CC(CC)CCCC)=C9C8=O)=O)=C(C%10=CC=C(C)S%10)S7)S6,117,58.5,2,1,1,DCB,DIO,NA,150,,,
606,269,2019,8.38,8.05,16.19,0.681,0.76,IT-M,5.58,3.98,1.6,CCCCCCC(C=C1)=CC=C1C2(C3=CC=C(CCCCCC)C=C3)C4=CC5=C(C(C6=C5SC7=C6SC(/C=C8C(C(C=CC(C)=C9)=C9C\8=C(C#N)\C#N)=O)=C7)(C%10=CC=C(CCCCCC)C=C%10)C%11=CC=C(CCCCCC)C=C%11)C=C4C%12=C2C(SC(/C=C%13C(C(C=CC(C)=C%14)=C%14C\%13=C(C#N)/C#N)=O)=C%15)=C%15S%12,1456.01,PDTP-FBTA,5.21,3.28,1.93,CC(S1)=CC=C1C(C2=NN(CC(CCCCCC)CCCC)N=C23)=C(F)C(F)=C3C4=CC=C(S4)C5=CC(OC(CCCCCCCC)(CCCCCCCC)C6=C7SC(C)=C6)=C7S5,56,22.4,2.5,1,1.5,CF,DIO,100,,,,
607,269,2019,10.51,10.24,17.15,0.753,0.81,IT-M,5.58,3.98,1.6,CCCCCCC(C=C1)=CC=C1C2(C3=CC=C(CCCCCC)C=C3)C4=CC5=C(C(C6=C5SC7=C6SC(/C=C8C(C(C=CC(C)=C9)=C9C\8=C(C#N)\C#N)=O)=C7)(C%10=CC=C(CCCCCC)C=C%10)C%11=CC=C(CCCCCC)C=C%11)C=C4C%12=C2C(SC(/C=C%13C(C(C=CC(C)=C%14)=C%14C\%13=C(C#N)/C#N)=O)=C%15)=C%15S%12,1456.01,PDTTP-FBTA,5.3,3.33,1.97,CC(S1)=CC=C1C(C2=NN(CC(CCCCCC)CCCC)N=C23)=C(F)C(F)=C3C4=CC=C(S4)C5=CC(SC(CCCCCCCC)(CCCCCCCC)C6=C7SC(C)=C6)=C7S5,51.7,23.5,2.2,1,1,CF,DIO,100,,,,
608,270,2019,0.15,0.15,0.55,0.2565,1.06,FDI2,5.98,3.61,2.37,O=C(N(C(CCCCCC)CCCCCC)C1=O)C2=CC=C3C4=C(C5=C6C=C(C(N(C(CCCCCC)CCCCCC)C7=O)=O)C8=C7C=CC3=C58)C(C9=C6OC(C(O%10)=CC%11=C%10C%12=C%13C%14=C(C%15=CC=C(C(N(C(CCCCCC)CCCCCC)C%16=O)=O)C%17=C%16C=C%11C%13=C%15%17)C=CC%18=C%14C(C(N(C(CCCCCC)CCCCCC)C%18=O)=O)=C%12)=C9)=CC1=C42,1636.18,PBDB-T,5.23,3.4,1.83,CC(SC1=C2C3=CC=C(CC(CC)CCCC)S3)=CC1=C(C4=CC=C(CC(CC)CCCC)S4)C5=C2C=C(S5)C6=CC=C(C7=C8C(C(C9=C(CC(CC)CCCC)SC(CC(CC)CCCC)=C9C8=O)=O)=C(C%10=CC=C(C)S%10)S7)S6,117,58.5,2,1,1,CB,NA,NA,,,,
609,270,2019,6.33,6.33,9.88,0.6163,1.04,F-FDI2,5.86,3.56,2.3,O=C(N(C(CCCCCC)CCCCCC)C1=O)C2=CC=C3C4=C(C5=C6C=C(C(N(C(CCCCCC)CCCCCC)C7=O)=O)C8=C7C=CC3=C58)C(C9=C6OC(C%10=CC%11=C(C=C%10)C%12=CC=C(C(O%13)=CC%14=C%13C%15=C%16C%17=C(C%18=CC=C(C(N(C(CCCCCC)CCCCCC)C%19=O)=O)C%20=C%19C=C%14C%16=C%18%20)C=CC%21=C%17C(C(N(C(CCCCCC)CCCCCC)C%21=O)=O)=C%15)C=C%12C%11(CCCCCCCC)CCCCCCCC)=C9)=CC1=C42,2024.82,PBDB-T,5.23,3.4,1.83,CC(SC1=C2C3=CC=C(CC(CC)CCCC)S3)=CC1=C(C4=CC=C(CC(CC)CCCC)S4)C5=C2C=C(S5)C6=CC=C(C7=C8C(C(C9=C(CC(CC)CCCC)SC(CC(CC)CCCC)=C9C8=O)=O)=C(C%10=CC=C(C)S%10)S7)S6,117,58.5,2,1,1,CB,CN,140,,,,
610,271,2019,10.2,9.95,15.11,0.63,1.01,ITIC-4F,5.66,4.11,1.55,CCCCCCC(C=C1)=CC=C1C2(C3=CC=C(CCCCCC)C=C3)C4=CC5=C(C(C6=C5SC7=C6SC(/C=C8C(C(C=C(F)C(F)=C9)=C9C\8=C(C#N)\C#N)=O)=C7)(C%10=CC=C(CCCCCC)C=C%10)C%11=CC=C(CCCCCC)C=C%11)C=C4C%12=C2C(SC(/C=C%13C(C(C=C(F)C(F)=C%14)=C%14C\%13=C(C#N)/C#N)=O)=C%15)=C%15S%12,1499.92,PFBTBOX,5.33,3.61,1.72,CC(S1)=CC(F)=C1C2=C(F)C=C(C3=C(OCCCCCCCC)C(OCCCCCCCC)=C(C)C4=NON=C43)S2,62.82,31.1,2.019935691,1,1.2,CB,DIO,100,,,,
611,272,2019,9.28,9.13,21.3,0.668,0.65,CPDT-4Cl,5.29,3.93,1.36,CCCCCCC1(CCCCCC)C2=C(SC(/C=C3C(C(C=C(Cl)C(Cl)=C4)=C4C\3=C(C#N)\C#N)=O)=C2)C5=C1C=C(C(S6)=CC7=C6C(SC(/C=C8C(C(C=C(Cl)C(Cl)=C9)=C9C\8=C(C#N)/C#N)=O)=C%10)=C%10C7(CCCCCC)CCCCCC)S5,1237.71,PBDB-T,5.18,3.38,1.8,CC(SC1=C2C3=CC=C(CC(CC)CCCC)S3)=CC1=C(C4=CC=C(CC(CC)CCCC)S4)C5=C2C=C(S5)C6=CC=C(C7=C8C(C(C9=C(CC(CC)CCCC)SC(CC(CC)CCCC)=C9C8=O)=O)=C(C%10=CC=C(C)S%10)S7)S6,117,58.5,2,1,1.2,CB,CN,NA,110,,,
612,272,2019,9.47,9.29,20.1,0.696,0.68,CPDT-4F,5.26,3.87,1.39,CCCCCCC1(CCCCCC)C2=C(SC(/C=C3C(C(C=C(F)C(F)=C4)=C4C\3=C(C#N)\C#N)=O)=C2)C5=C1C=C(C(S6)=CC7=C6C(SC(/C=C8C(C(C=C(F)C(F)=C9)=C9C\8=C(C#N)/C#N)=O)=C%10)=C%10C7(CCCCCC)CCCCCC)S5,1171.5,PBDB-T,5.18,3.38,1.8,CC(SC1=C2C3=CC=C(CC(CC)CCCC)S3)=CC1=C(C4=CC=C(CC(CC)CCCC)S4)C5=C2C=C(S5)C6=CC=C(C7=C8C(C(C9=C(CC(CC)CCCC)SC(CC(CC)CCCC)=C9C8=O)=O)=C(C%10=CC=C(C)S%10)S7)S6,117,58.5,2,1,1,CB,CN,NA,110,,,
613,273,2019,6.8,6.5,14.2,0.487,0.985,ITIC,5.55,3.95,1.6,CCCCCCC(C=C1)=CC=C1C2(C3=CC=C(CCCCCC)C=C3)C4=CC5=C(C(C6=C5SC7=C6SC(/C=C8C(C(C=CC=C9)=C9C\8=C(C#N)\C#N)=O)=C7)(C%10=CC=C(CCCCCC)C=C%10)C%11=CC=C(CCCCCC)C=C%11)C=C4C%12=C2C(SC(/C=C%13C(C(C=CC=C%14)=C%14C\%13=C(C#N)/C#N)=O)=C%15)=C%15S%12,1427.96,P[DTffBT-TbT(5)],5.55,3.72,1.83,CC1=CC2=CC(C3=CC=C(C4=C(CC(CCCCCCCC)CCCCCCCCCC)C=C(S4)C(C5=NSN=C5C(C(S6)=CC(CC(CCCCCCCC)CCCCCCCCCC)=C6C)=C7F)=C7F)S3)=CC=C2S1,35.2,25,1.408,1,1,CB,DIO,110,100,,,
614,273,2019,8.5,7.8,17.5,0.537,0.899,IDIC,5.75,4.2,1.55,O=C(C(C=CC=C1)=C1C/2=C(C#N)\C#N)C2=C/C(S3)=CC4=C3C5=C(C4(CCCCCC)CCCCCC)C=C6C(C(CCCCCC)(CCCCCC)C7=C6SC(/C=C8C(C(C=CC=C9)=C9C\8=C(C#N)/C#N)=O)=C7)=C5,1011.4,P[DTffBT-TbT(5)],5.55,3.72,1.83,CC1=CC2=CC(C3=CC=C(C4=C(CC(CCCCCCCC)CCCCCCCCCC)C=C(S4)C(C5=NSN=C5C(C(S6)=CC(CC(CCCCCCCC)CCCCCCCCCC)=C6C)=C7F)=C7F)S3)=CC=C2S1,35.2,25,1.408,1,1,CB,DIO,110,100,,,
615,273,2019,6.9,6.8,13,0.592,0.899,ITIC,5.55,3.95,1.6,CCCCCCC(C=C1)=CC=C1C2(C3=CC=C(CCCCCC)C=C3)C4=CC5=C(C(C6=C5SC7=C6SC(/C=C8C(C(C=CC=C9)=C9C\8=C(C#N)\C#N)=O)=C7)(C%10=CC=C(CCCCCC)C=C%10)C%11=CC=C(CCCCCC)C=C%11)C=C4C%12=C2C(SC(/C=C%13C(C(C=CC=C%14)=C%14C\%13=C(C#N)/C#N)=O)=C%15)=C%15S%12,1427.96,P[DTffBT-TbT(6)],5.35,3.63,1.72,CC1=CC2=CC=C(C3=CC=C(C4=C(CC(CCCCCCCC)CCCCCCCCCC)C=C(S4)C(C5=NSN=C5C(C(S6)=CC(CC(CCCCCCCC)CCCCCCCCCC)=C6C)=C7F)=C7F)S3)C=C2S1,44.5,28.9,1.539792388,1,1,CB,DIO,110,100,,,
616,273,2019,6.8,6.4,12.9,0.682,0.778,IDIC,5.75,4.2,1.55,O=C(C(C=CC=C1)=C1C/2=C(C#N)\C#N)C2=C/C(S3)=CC4=C3C5=C(C4(CCCCCC)CCCCCC)C=C6C(C(CCCCCC)(CCCCCC)C7=C6SC(/C=C8C(C(C=CC=C9)=C9C\8=C(C#N)/C#N)=O)=C7)=C5,1011.4,P[DTffBT-TbT(6)],5.35,3.63,1.72,CC1=CC2=CC=C(C3=CC=C(C4=C(CC(CCCCCCCC)CCCCCCCCCC)C=C(S4)C(C5=NSN=C5C(C(S6)=CC(CC(CCCCCCCC)CCCCCCCCCC)=C6C)=C7F)=C7F)S3)C=C2S1,44.5,28.9,1.539792388,1,1,CB,DIO,110,100,,,
617,274,2019,8.73,8.46,15.93,0.67,0.81,ITIC,5.6,4,1.6,CCCCCCC(C=C1)=CC=C1C2(C3=CC=C(CCCCCC)C=C3)C4=CC5=C(C(C6=C5SC7=C6SC(/C=C8C(C(C=CC=C9)=C9C\8=C(C#N)\C#N)=O)=C7)(C%10=CC=C(CCCCCC)C=C%10)C%11=CC=C(CCCCCC)C=C%11)C=C4C%12=C2C(SC(/C=C%13C(C(C=CC=C%14)=C%14C\%13=C(C#N)/C#N)=O)=C%15)=C%15S%12,1427.96,PTB7-Th,5.22,3.64,1.58,O=C(OCC(CC)CCCC)C1=C(F)C2=C(C)SC(C3=CC4=C(C(C5=CC=C(CC(CC)CCCC)S5)=C(C=C(C)S6)C6=C4C7=CC=C(CC(CC)CCCC)S7)S3)=C2S1,124,72.9,1.700960219,1,1.5,CB,CN,NA,,,,
618,274,2019,9.45,9.18,15.81,0.6,1,EH-IDTBR,5.5,3.9,1.6,O=C(/C(S1)=C/C(C2=NSN=C32)=CC=C3C(S4)=CC5=C4C6=CC(C(CC(CC)CCCC)(CC(CC)CCCC)C7=C8SC(C9=CC=C(/C=C%10SC(N(CC)C\%10=O)=S)C%11=NSN=C9%11)=C7)=C8C=C6C5(CC(CC)CCCC)CC(CC)CCCC)N(CC)C1=S,1326.02,PTB7-Th,5.22,3.64,1.58,O=C(OCC(CC)CCCC)C1=C(F)C2=C(C)SC(C3=CC4=C(C(C5=CC=C(CC(CC)CCCC)S5)=C(C=C(C)S6)C6=C4C7=CC=C(CC(CC)CCCC)S7)S3)=C2S1,124,72.9,1.700960219,1,1.5,CB,CN,NA,,,,
619,274,2019,11.88,11.31,26.36,0.62,0.72,IEICO-4F,5.4,4.2,1.2,CCCCCCC(C=C1)=CC=C1C(C2=C3SC(C4=C(OCC(CC)CCCC)C=C(/C=C5C(C(C=C(F)C(F)=C6)=C6C\5=C(C#N)\C#N)=O)S4)=C2)(C7=CC=C(CCCCCC)C=C7)C8=C3C=C(C(C9=C%10SC(C(S%11)=C(C=C%11/C=C%12/C(C(C=C%13F)=C(C%12=O)C=C%13F)=C(C#N)/C#N)OCC(CCCC)CC)=C9)(C%14=CC=C(CCCCCC)C=C%14)C%15=CC=C(CCCCCC)C=C%15)C%10=C8,1808.42,PTB7-Th,5.22,3.64,1.58,O=C(OCC(CC)CCCC)C1=C(F)C2=C(C)SC(C3=CC4=C(C(C5=CC=C(CC(CC)CCCC)S5)=C(C=C(C)S6)C6=C4C7=CC=C(CC(CC)CCCC)S7)S3)=C2S1,124,72.9,1.700960219,1,1.5,CB,CN,NA,,,,
620,275,2019,5.13,4.88,11.39,0.517,0.872,IEICO,5.31,3.91,1.4,CCCCCCC(C=C1)=CC=C1C(C2=C3SC(C4=C(OCC(CC)CCCC)C=C(/C=C5C(C(C=CC=C6)=C6C/5=C(C#N)/C#N)=O)S4)=C2)(C7=CC=C(CCCCCC)C=C7)C8=C3C=C(C(C9=C%10SC(C%11=C(C=C(/C=C%12\C(C%13=C(C%12=O)C=CC=C%13)=C(C#N)\C#N)S%11)OCC(CCCC)CC)=C9)(C%14=CC=C(CCCCCC)C=C%14)C%15=CC=C(CCCCCC)C=C%15)C%10=C8,1736.46,J52,5.21,2.9,2.31,CC1=CC(C(S1)=C2C3=CC=C(CC(CC)CCCC)S3)=C(C4=C2C=C(C5=CC=C(C6=C(F)C(F)=C(C7=CC=C(C)S7)C8=NN(CC(CCCCCC)CCCCCCCC)N=C68)S5)S4)C9=CC=C(CC(CC)CCCC)S9,170,53.125,3.2,1,1,CB,NA,130,,,,
621,275,2019,10.48,10.26,18.76,0.582,0.96,i-IEICO,5.31,3.68,1.63,CCCCCCC(C=C1)=CC=C1C(C2=C3SC(C4=C(OCC(CC)CCCC)C(C=C5C(C(C=CC=C6)=C6/C5=C(C#N)/C#N)=O)=CS4)=C2)(C7=CC=C(CCCCCC)C=C7)C8=C3C=C(C(C9=C%10SC(C%11=C(C(/C=C%12\C(C%13=C(C%12=O)C=CC=C%13)=C(C#N)\C#N)=CS%11)OCC(CCCC)CC)=C9)(C%14=CC=C(CCCCCC)C=C%14)C%15=CC=C(CCCCCC)C=C%15)C%10=C8,1736.46,J52,5.21,2.9,2.31,CC1=CC(C(S1)=C2C3=CC=C(CC(CC)CCCC)S3)=C(C4=C2C=C(C5=CC=C(C6=C(F)C(F)=C(C7=CC=C(C)S7)C8=NN(CC(CCCCCC)CCCCCCCC)N=C68)S5)S4)C9=CC=C(CC(CC)CCCC)S9,170,53.125,3.2,1,1,CB,NA,130,,,,
622,275,2019,3.38,3.27,7.16,0.528,0.894,IEICO,5.31,3.91,1.4,CCCCCCC(C=C1)=CC=C1C(C2=C3SC(C4=C(OCC(CC)CCCC)C=C(/C=C5C(C(C=CC=C6)=C6C/5=C(C#N)/C#N)=O)S4)=C2)(C7=CC=C(CCCCCC)C=C7)C8=C3C=C(C(C9=C%10SC(C%11=C(C=C(/C=C%12\C(C%13=C(C%12=O)C=CC=C%13)=C(C#N)\C#N)S%11)OCC(CCCC)CC)=C9)(C%14=CC=C(CCCCCC)C=C%14)C%15=CC=C(CCCCCC)C=C%15)C%10=C8,1736.46,PBDB-T,5.26,3.16,2.1,CC(SC1=C2C3=CC=C(CC(CC)CCCC)S3)=CC1=C(C4=CC=C(CC(CC)CCCC)S4)C5=C2C=C(S5)C6=CC=C(C7=C8C(C(C9=C(CC(CC)CCCC)SC(CC(CC)CCCC)=C9C8=O)=O)=C(C%10=CC=C(C)S%10)S7)S6,117,58.5,2,1,1,CB,NA,130,,,,
623,275,2019,8.79,8.43,14.67,0.596,1.006,i-IEICO,5.31,3.68,1.63,CCCCCCC(C=C1)=CC=C1C(C2=C3SC(C4=C(OCC(CC)CCCC)C(C=C5C(C(C=CC=C6)=C6/C5=C(C#N)/C#N)=O)=CS4)=C2)(C7=CC=C(CCCCCC)C=C7)C8=C3C=C(C(C9=C%10SC(C%11=C(C(/C=C%12\C(C%13=C(C%12=O)C=CC=C%13)=C(C#N)\C#N)=CS%11)OCC(CCCC)CC)=C9)(C%14=CC=C(CCCCCC)C=C%14)C%15=CC=C(CCCCCC)C=C%15)C%10=C8,1736.46,PBDB-T,5.26,3.16,2.1,CC(SC1=C2C3=CC=C(CC(CC)CCCC)S3)=CC1=C(C4=CC=C(CC(CC)CCCC)S4)C5=C2C=C(S5)C6=CC=C(C7=C8C(C(C9=C(CC(CC)CCCC)SC(CC(CC)CCCC)=C9C8=O)=O)=C(C%10=CC=C(C)S%10)S7)S6,117,58.5,2,1,1,CB,NA,130,,,,
624,276,2019,8.18,8.01,15.31,0.6,0.89,ITIC,5.48,3.83,1.65,CCCCCCC(C=C1)=CC=C1C2(C3=CC=C(CCCCCC)C=C3)C4=CC5=C(C(C6=C5SC7=C6SC(/C=C8C(C(C=CC=C9)=C9C\8=C(C#N)\C#N)=O)=C7)(C%10=CC=C(CCCCCC)C=C%10)C%11=CC=C(CCCCCC)C=C%11)C=C4C%12=C2C(SC(/C=C%13C(C(C=CC=C%14)=C%14C\%13=C(C#N)/C#N)=O)=C%15)=C%15S%12,1427.96,TP,5.31,3.66,1.65,CC(SC1=C2C3=CC=C(CC(CC)CCCC)S3)=CC1=C(C4=CC=C(CC(CC)CCCC)S4)C5=C2C=C(C(S6)=CC7=C6C=C(C8=C(C(N9CC(CCCCCCCC)CCCCCCCCCC)=O)C(C9=O)=C(C%10=CC%11=C(C=C(C(SC%12=C%13C%14=CC=C(CC(CC)CCCC)S%14)=CC%12=C(C%15=CC=C(CC(CC)CCCC)S%15)C%16=C%13C=C(C%17=C%18C(C(F)=C(C(OCC(CC)CCCC)=O)S%18)=C(C)S%17)S%16)S%11)S%10)N8CCCCCCCC)S7)S5,4.3,2.23,1.928251121,1,1.2,CF,DIO,NA,,,,
625,276,2019,8.73,8.58,21.44,0.55,0.74,IEICO-4F,5.44,4.19,1.25,CCCCCCC(C=C1)=CC=C1C(C2=C3SC(C4=C(OCC(CC)CCCC)C=C(/C=C5C(C(C=C(F)C(F)=C6)=C6C\5=C(C#N)\C#N)=O)S4)=C2)(C7=CC=C(CCCCCC)C=C7)C8=C3C=C(C(C9=C%10SC(C(S%11)=C(C=C%11/C=C%12/C(C(C=C%13F)=C(C%12=O)C=C%13F)=C(C#N)/C#N)OCC(CCCC)CC)=C9)(C%14=CC=C(CCCCCC)C=C%14)C%15=CC=C(CCCCCC)C=C%15)C%10=C8,1808.42,TP,5.31,3.66,1.65,CC(SC1=C2C3=CC=C(CC(CC)CCCC)S3)=CC1=C(C4=CC=C(CC(CC)CCCC)S4)C5=C2C=C(C(S6)=CC7=C6C=C(C8=C(C(N9CC(CCCCCCCC)CCCCCCCCCC)=O)C(C9=O)=C(C%10=CC%11=C(C=C(C(SC%12=C%13C%14=CC=C(CC(CC)CCCC)S%14)=CC%12=C(C%15=CC=C(CC(CC)CCCC)S%15)C%16=C%13C=C(C%17=C%18C(C(F)=C(C(OCC(CC)CCCC)=O)S%18)=C(C)S%17)S%16)S%11)S%10)N8CCCCCCCC)S7)S5,4.3,2.23,1.928251121,1,1.2,CF,DIO,NA,,,,
626,277,2018,10.2,10,21.3,0.68,0.71,IEICO-4F,5.44,4.19,1.25,CCCCCCC(C=C1)=CC=C1C(C2=C3SC(C4=C(OCC(CC)CCCC)C=C(/C=C5C(C(C=C(F)C(F)=C6)=C6C\5=C(C#N)\C#N)=O)S4)=C2)(C7=CC=C(CCCCCC)C=C7)C8=C3C=C(C(C9=C%10SC(C(S%11)=C(C=C%11/C=C%12/C(C(C=C%13F)=C(C%12=O)C=C%13F)=C(C#N)/C#N)OCC(CCCC)CC)=C9)(C%14=CC=C(CCCCCC)C=C%14)C%15=CC=C(CCCCCC)C=C%15)C%10=C8,1808.42,PTB7-Th,5.22,3.64,1.58,O=C(OCC(CC)CCCC)C1=C(F)C2=C(C)SC(C3=CC4=C(C(C5=CC=C(CC(CC)CCCC)S5)=C(C=C(C)S6)C6=C4C7=CC=C(CC(CC)CCCC)S7)S3)=C2S1,124,72.9,1.700960219,1,2,CF,CN,NA,110,,,
627,278,2018,7.46,7.17,15.45,0.51,0.95,SeTIC,5.55,3.9,1.65,CCCCCCC(C=C1)=CC=C1C2(C3=CC=C(CCCCCC)C=C3)C4=CC5=C(C(C6=C5[Se]C7=C6SC(/C=C8C(C(C=CC=C9)=C9C\8=C(C#N)\C#N)=O)=C7)(C%10=CC=C(CCCCCC)C=C%10)C%11=CC=C(CCCCCC)C=C%11)C=C4C%12=C2C(SC(/C=C%13C(C(C=CC=C%14)=C%14C\%13=C(C#N)/C#N)=O)=C%15)=C%15[Se]%12,1521.76,PM6,5.45,3.65,1.8,CC(SC1=C2C3=CC(F)=C(CC(CC)CCCC)S3)=CC1=C(C4=CC(F)=C(CC(CC)CCCC)S4)C5=C2C=C(S5)C6=CC=C(C7=C8C(C(C9=C(CC(CC)CCCC)SC(CC(CC)CCCC)=C9C8=O)=O)=C(C%10=CC=C(C)S%10)S7)S6,38.6,19.3,2,1,1,CF,DIO,110,100,,,
628,278,2018,13.32,12.91,22.92,0.75,0.78,SeTIC4Cl,5.65,4.08,1.57,CCCCCCC(C=C1)=CC=C1C2(C3=CC=C(CCCCCC)C=C3)C4=CC5=C(C(C6=C5[Se]C7=C6SC(/C=C8C(C(C=C(Cl)C(Cl)=C9)=C9C\8=C(C#N)\C#N)=O)=C7)(C%10=CC=C(CCCCCC)C=C%10)C%11=CC=C(CCCCCC)C=C%11)C=C4C%12=C2C(SC(/C=C%13C(C(C=C(Cl)C(Cl)=C%14)=C%14C\%13=C(C#N)/C#N)=O)=C%15)=C%15[Se]%12,1659.52,PM6,5.45,3.65,1.8,CC(SC1=C2C3=CC(F)=C(CC(CC)CCCC)S3)=CC1=C(C4=CC(F)=C(CC(CC)CCCC)S4)C5=C2C=C(S5)C6=CC=C(C7=C8C(C(C9=C(CC(CC)CCCC)SC(CC(CC)CCCC)=C9C8=O)=O)=C(C%10=CC=C(C)S%10)S7)S6,38.6,19.3,2,1,1,CF,DIO,110,100,,,
629,279,2019,3.98,3.81,7.16,0.586,0.95,IPIC,5.47,3.82,1.65,CCCCCCC(C=C1)=CC=C1C2(C3=CC=C(CCCCCC)C=C3)C4=CC5=C(C(C6=C5SC7=C6N(CC(CCCC)CCCCCC)C8=C7SC(/C=C9C(C(C=CC=C%10)=C%10C\9=C(C#N)\C#N)=O)=C8)(C%11=CC=C(CCCCCC)C=C%11)C%12=CC=C(CCCCCC)C=C%12)C=C4C%13=C2C(N(CC(CCCCCC)CCCC)C%14=C%15SC(/C=C%16C(C(C=CC=C%17)=C%17C\%16=C(C#N)/C#N)=O)=C%14)=C%15S%13,1842.68,PBDB-T,5.33,3.29,2.04,CC(SC1=C2C3=CC=C(CC(CC)CCCC)S3)=CC1=C(C4=CC=C(CC(CC)CCCC)S4)C5=C2C=C(S5)C6=CC=C(C7=C8C(C(C9=C(CC(CC)CCCC)SC(CC(CC)CCCC)=C9C8=O)=O)=C(C%10=CC=C(C)S%10)S7)S6,117,58.5,2,1,1,CB,DIO,100,,,,
630,279,2019,11.1,10.7,19.8,0.671,0.835,IPIC-4F,5.54,3.94,1.6,CCCCCCC(C=C1)=CC=C1C2(C3=CC=C(CCCCCC)C=C3)C4=CC5=C(C(C6=C5SC7=C6N(CC(CCCC)CCCCCC)C8=C7SC(/C=C9C(C(C=C(F)C(F)=C%10)=C%10C\9=C(C#N)\C#N)=O)=C8)(C%11=CC=C(CCCCCC)C=C%11)C%12=CC=C(CCCCCC)C=C%12)C=C4C%13=C2C(N(CC(CCCCCC)CCCC)C%14=C%15SC(/C=C%16C(C(C=C(F)C(F)=C%17)=C%17C\%16=C(C#N)/C#N)=O)=C%14)=C%15S%13,1914.64,PBDB-T,5.33,3.29,2.04,CC(SC1=C2C3=CC=C(CC(CC)CCCC)S3)=CC1=C(C4=CC=C(CC(CC)CCCC)S4)C5=C2C=C(S5)C6=CC=C(C7=C8C(C(C9=C(CC(CC)CCCC)SC(CC(CC)CCCC)=C9C8=O)=O)=C(C%10=CC=C(C)S%10)S7)S6,117,58.5,2,1,1,CB,DIO,100,,,,
631,279,2019,13.4,13,22.2,0.74,0.813,IPIC-4Cl,5.51,3.95,1.56,CCCCCCC(C=C1)=CC=C1C2(C3=CC=C(CCCCCC)C=C3)C4=CC5=C(C(C6=C5SC7=C6N(CC(CCCC)CCCCCC)C8=C7SC(/C=C9C(C(C=C(Cl)C(Cl)=C%10)=C%10C\9=C(C#N)\C#N)=O)=C8)(C%11=CC=C(CCCCCC)C=C%11)C%12=CC=C(CCCCCC)C=C%12)C=C4C%13=C2C(N(CC(CCCCCC)CCCC)C%14=C%15SC(/C=C%16C(C(C=C(Cl)C(Cl)=C%17)=C%17C\%16=C(C#N)/C#N)=O)=C%14)=C%15S%13,1980.45,PBDB-T,5.33,3.29,2.04,CC(SC1=C2C3=CC=C(CC(CC)CCCC)S3)=CC1=C(C4=CC=C(CC(CC)CCCC)S4)C5=C2C=C(S5)C6=CC=C(C7=C8C(C(C9=C(CC(CC)CCCC)SC(CC(CC)CCCC)=C9C8=O)=O)=C(C%10=CC=C(C)S%10)S7)S6,117,58.5,2,1,1,CB,DIO,100,,,,
632,280,2019,11.9,11.7,22.5,0.703,0.74,FOIC,5.48,4.02,1.46,CCCCCCC(C=C1)=CC=C1C2(C3=CC=C(CCCCCC)C=C3)C4=C(SC5=C4SC6=C5C(C7=C6SC8=C7SC(/C=C9C(C(C=CC(F)=C%10)=C%10C\9=C(C#N)\C#N)=O)=C8)(C%11=CC=C(CCCCCC)C=C%11)C%12=CC=C(CCCCCC)C=C%12)C%13=C2C(SC(/C=C%14C(C(C=CC(F)=C%15)=C%15C\%14=C(C#N)/C#N)=O)=C%16)=C%16S%13,1526.04,PTB7-Th,5.28,3.5,1.78,O=C(OCC(CC)CCCC)C1=C(F)C2=C(C)SC(C3=CC4=C(C(C5=CC=C(CC(CC)CCCC)S5)=C(C=C(C)S6)C6=C4C7=CC=C(CC(CC)CCCC)S7)S3)=C2S1,124,72.9,1.700960219,1,1.5,CF,NA,NA,,,,
633,281,2019,10.5,10,23.4,0.64,0.7,CTIT-4F,5.4,4,1.4,CCCCC(CC)CC(C1=C2SC(C3=C(CCC(CC)CCCC)C=C(/C=C4/C(C(C=C5F)=C(C4=O)C=C5F)=C(C#N)/C#N)S3)=C1)(C6=C2SC(C7=C(CCC(CC)CCCC)C=C(/C=C8/C(C(C=C9F)=C(C8=O)C=C9F)=C(C#N)/C#N)S7)=C6)CC(CC)CCCC,1299.76,PTB7-Th,5.2,3.5,1.7,O=C(OCC(CC)CCCC)C1=C(F)C2=C(C)SC(C3=CC4=C(C(C5=CC=C(CC(CC)CCCC)S5)=C(C=C(C)S6)C6=C4C7=CC=C(CC(CC)CCCC)S7)S3)=C2S1,124,72.9,1.700960219,1,1.5,CB,CN,NA,,,,
634,281,2019,10.2,10,24.8,0.64,0.64,CO1-4F,5.3,4.1,1.2,CCCCC(CC)CC(C1=C2SC(C3=C(OCC(CC)CCCC)C=C(/C=C4/C(C(C=C5F)=C(C4=O)C=C5F)=C(C#N)/C#N)S3)=C1)(C6=C2SC(C7=C(CCC(CC)CCCC)C=C(/C=C8/C(C(C=C9F)=C(C8=O)C=C9F)=C(C#N)/C#N)S7)=C6)CC(CC)CCCC,1301.73,PTB7-Th,5.2,3.5,1.7,O=C(OCC(CC)CCCC)C1=C(F)C2=C(C)SC(C3=CC4=C(C(C5=CC=C(CC(CC)CCCC)S5)=C(C=C(C)S6)C6=C4C7=CC=C(CC(CC)CCCC)S7)S3)=C2S1,124,72.9,1.700960219,1,1.5,CB,CN,NA,,,,
635,281,2019,7.3,6.9,20.7,0.61,0.57,COTIC-4F,5.2,4.1,1.1,CCCCC(CC)CC(C1=C2SC(C3=C(OCC(CC)CCCC)C=C(/C=C4/C(C(C=C5F)=C(C4=O)C=C5F)=C(C#N)/C#N)S3)=C1)(C6=C2SC(C7=C(OCC(CC)CCCC)C=C(/C=C8/C(C(C=C9F)=C(C8=O)C=C9F)=C(C#N)/C#N)S7)=C6)CC(CC)CCCC,1303.71,PTB7-Th,5.2,3.5,1.7,O=C(OCC(CC)CCCC)C1=C(F)C2=C(C)SC(C3=CC4=C(C(C5=CC=C(CC(CC)CCCC)S5)=C(C=C(C)S6)C6=C4C7=CC=C(CC(CC)CCCC)S7)S3)=C2S1,124,72.9,1.700960219,1,1.5,CB,CN,NA,,,,
636,282,2018,8.09,8.06,13.64,0.587,1.01,O-IDTBR,5.51,3.88,1.63,O=C(/C(S1)=C/C(C2=NSN=C32)=CC=C3C(S4)=CC5=C4C6=CC(C(CCCCCCCC)(CCCCCCCC)C7=C8SC(C9=CC=C(/C=C%10SC(N(CC)C\%10=O)=S)C%11=NSN=C9%11)=C7)=C8C=C6C5(CCCCCCCC)CCCCCCCC)N(CC)C1=S,1326.02,PBDB-T,5.21,3.41,1.8,CC(SC1=C2C3=CC=C(CC(CC)CCCC)S3)=CC1=C(C4=CC=C(CC(CC)CCCC)S4)C5=C2C=C(S5)C6=CC=C(C7=C8C(C(C9=C(CC(CC)CCCC)SC(CC(CC)CCCC)=C9C8=O)=O)=C(C%10=CC=C(C)S%10)S7)S6,117,58.5,2,1,1,CB,CN,80,,,,