ID,Ref,year,PCE_max(%),PCE_ave(%),Jsc(mA/cm2),FF,Voc(V),Nickname(n),-HOMO_n(eV),-LUMO_n(eV),Eg_n(eV),n(SMILES),M (g/mol),Nickname(p),-HOMO_p(eV),-LUMO_p(eV),Eg_p(eV),p(SMILES),Mw (kg/mol),Mn(kg/mol),PDI,p/n ratio (p),p/n ratio (n),Solvent,Additive,TA (oC),thick (nm),,Journal,DOI
521,235,2018,0.73,0.73,1.98,0.369,1,SF(DPPBF)4,5.12,3.58,1.54,O=C1C(C2=C(C3=CC=C(C4=CC(C=CC=C5)=C5S4)S3)N1CC(CC)CCCC)=C(C(S6)=CC=C6C7=CC8=C(C9C(C8(C%10C%11C=CC(C%12=CC=C(C%13=C%14C(C(N%13CC(CC)CCCC)=O)=C(C%15=CC=C(C%16=CC(C=CC=C%17)=C%17S%16)S%15)N(CC(CC)CCCC)C%14=O)S%12)=C%10)C%18=C%11C=CC(C%19=CC=C(C%20=C%21C(C(N%20CC(CC)CCCC)=O)=C(C%22=CC=C(C%23=CC(C=CC=C%24)=C%24S%23)S%22)N(CC(CC)CCCC)C%21=O)S%19)=C%18)C=C(C%25=CC=C(C%26=C%27C(C(N%26CC(CC)CCCC)=O)=C(C%28=CC=C(C%29=CC(C=CC=C%30)=C%30S%29)S%28)N(CC(CC)CCCC)C%27=O)S%25)C=C9)C=C7)N(CC(CC)CCCC)C2=O,2940.22,P3HT,5,3.1,1.9,CC1=CC(CCCCCC)=C(C)S1,21.1,11.6,1.82,1,1,CB,NA,110,,,New J. Chem.,10.1039/c8nj01549j
522,236,2018,5.29,5.29,11.69,0.44,1.03,di-PNR (PDI),5.97,3.75,2.22,O=C(N(C(CCCCC)CCCCC)C1=O)C2=CC=C(C3=C4C5=CC1=C32)C6=C(C7=C(C8=CC=C(C(N(C(CCCCC)CCCCC)C9=O)=O)C%10=C9C=C%11C%12=C8%10)C(C%12=C(N%11CCCCCCCC)C=C%13C(N(C(CCCCC)CCCCC)C%14=O)=O)=C%13C%14=C7)C=C%15C%16=C6C4=C(N5CCCCCCCC)C=C%16C(N(C(CCCCC)CCCCC)C%15=O)=O,1646.31,PTB7-Th,5.22,3.64,1.58,O=C(OCC(CC)CCCC)C1=C(F)C2=C(C)SC(C3=CC4=C(C(C5=CC=C(CC(CC)CCCC)S5)=C(C=C(C)S6)C6=C4C7=CC=C(CC(CC)CCCC)S7)S3)=C2S1,124,72.9,1.7,1,1,CB,DIO,NA,,,New J. Chem.,10.1039/c8nj02566e
523,236,2018,4.54,4.54,9.92,0.42,1.09,TPA-PNR (PDI),5.45,3.65,1.8,O=C(N(C(CCCCC)CCCCC)C1=O)C2=CC=C(C3=C4C5=CC1=C32)C6=C(C7=CC=C(N(C8=CC=C(C9=C(C%10=CC=C(C(N(C(CCCCC)CCCCC)C%11=O)=O)C%12=C%11C=C%13C%14=C%10%12)C(C%14=C(N%13CCCCCCCC)C=C%15C(N(C(CCCCC)CCCCC)C%16=O)=O)=C%15C%16=C9)C=C8)C%17=CC=C(C%18=C(C%19=CC=C(C(N(C(CCCCC)CCCCC)C%20=O)=O)C%21=C%20C=C%22C%23=C%19%21)C(C%23=C(N%22CCCCCCCC)C=C%24C(N(C(CCCCC)CCCCC)C%25=O)=O)=C%24C%25=C%18)C=C%17)C=C7)C=C%26C%27=C6C4=C(N5CCCCCCCC)C=C%27C(N(C(CCCCC)CCCCC)C%26=O)=O,2711.77,PTB7-Th,5.22,3.64,1.58,O=C(OCC(CC)CCCC)C1=C(F)C2=C(C)SC(C3=CC4=C(C(C5=CC=C(CC(CC)CCCC)S5)=C(C=C(C)S6)C6=C4C7=CC=C(CC(CC)CCCC)S7)S3)=C2S1,124,72.9,1.7,1,1,CB,DIO,NA,,,New J. Chem.,10.1039/c8nj02566e
524,236,2018,1.6,1.6,5.25,0.27,1.13,EDOT-PNR (PDI),5.75,3.69,2.06,O=C(N(C(CCCCC)CCCCC)C1=O)C2=CC=C(C3=C4C5=CC1=C32)C6=C(C7=C(OCCO8)C8=C(C9=C(C%10=CC=C(C(N(C(CCCCC)CCCCC)C%11=O)=O)C%12=C%11C=C%13C%14=C%10%12)C(C%14=C(N%13CCCCCCCC)C=C%15C(N(C(CCCCC)CCCCC)C%16=O)=O)=C%15C%16=C9)S7)C=C%17C%18=C6C4=C(N5CCCCCCCC)C=C%18C(N(C(CCCCC)CCCCC)C%17=O)=O,1786.47,PTB7-Th,5.22,3.64,1.58,O=C(OCC(CC)CCCC)C1=C(F)C2=C(C)SC(C3=CC4=C(C(C5=CC=C(CC(CC)CCCC)S5)=C(C=C(C)S6)C6=C4C7=CC=C(CC(CC)CCCC)S7)S3)=C2S1,124,72.9,1.7,1,1,CB,DIO,NA,,,New J. Chem.,10.1039/c8nj02566e
525,237,2015,1.29,1.35,3.42,0.39,1,PMI-F (PDI),5.72,3.56,2.16,O=C1N(C(C2=CC=C3C4=C2C1=CC=C4C5=CC=CC6=C(C=CC3=C56)C7=CC8=C(C=C7)C(C=CC=C9)C9C8(CCCCCCCC)CCCCCCCC)=O)C%10=C(C=CC=C%10C(C)C)C(C)C,872.25,P3HT,5,3.1,1.9,CC1=CC(CCCCCC)=C(C)S1,21.1,11.6,1.82,1,1,DCB,NA,150,,,Organic Electronics,10.1016/j.orgel.2015.03.017
526,237,2015,2.3,2.14,5.61,0.42,0.98,PMI-F-PMI (PDI),5.74,3.54,2.2,O=C1N(C2=C(C(C)C)C=CC=C2C(C)C)C(C3=CC=C4C5=C3C1=CC=C5C6=CC=CC7=C(C8=CC(C(CCCCCCCC)(CCCCCCCC)C9C%10C=CC(C(C=C%11)=C%12C%13=C%11C%14=CC=C(C(N%15C%16=C(C(C)C)C=CC=C%16C(C)C)=O)C%17=C%14C(C%13=CC=C%12)=CC=C%17C%15=O)=C9)=C%10C=C8)C=CC4=C67)=O,1351.83,P3HT,5,3.1,1.9,CC1=CC(CCCCCC)=C(C)S1,21.1,11.6,1.82,1,1,DCB,NA,150,,,Organic Electronics,10.1016/j.orgel.2015.03.017
527,238,2016,0.77,0.77,2.04,0.4398,0.86,AQI-T2,5.55,3.64,1.91,O=C1C2=C(C3=CC=CS3)C4=C(N=C5C(C6=CC=C7C8=C6C5=CC=C8C(N(CC(CC)CCCC)C7=O)=O)=N4)C(C9=CC=CS9)=C2C(N1CC(CC)CCCC)=O,781,PTB7-Th,5.22,3.64,1.58,O=C(OCC(CC)CCCC)C1=C(F)C2=C(C)SC(C3=CC4=C(C(C5=CC=C(CC(CC)CCCC)S5)=C(C=C(C)S6)C6=C4C7=CC=C(CC(CC)CCCC)S7)S3)=C2S1,124,72.9,1.7,1,2,DCB,NA,NA,,,Organic Electronics,10.1016/j.orgel.2015.12.022
528,239,2018,7.42,7.3,15.92,0.5482,0.85,ITIC,5.51,3.78,1.73,CCCCCCC(C=C1)=CC=C1C2(C3=CC=C(CCCCCC)C=C3)C4=CC5=C(C(C6=C5SC7=C6SC(/C=C8C(C(C=CC=C9)=C9C\8=C(C#N)\C#N)=O)=C7)(C%10=CC=C(CCCCCC)C=C%10)C%11=CC=C(CCCCCC)C=C%11)C=C4C%12=C2C(SC(/C=C%13C(C(C=CC=C%14)=C%14C\%13=C(C#N)/C#N)=O)=C%15)=C%15S%12,1427.96,Ph00,5.26,3.11,2.15,CC(SC1=C2C(C=C3)=CC=C3CC(CC)CCCC)=CC1=C(C(C=C4)=CC=C4CC(CC)CCCC)C5=C2C=C(S5)C6=CC=C(C(C7=NN(CCCCCCCC)N=C7C(C8=CC=C(C)S8)=C9C(N%10CCCCCCCC)=O)=C9C%10=O)S6,64.512,25.6,2.52,1,1.5,CB,DBE,120,100,,Organic Electronics,10.1016/j.orgel.2018.03.005
529,239,2018,7.62,7.48,15.23,0.5558,0.9,ITIC,5.51,3.78,1.73,CCCCCCC(C=C1)=CC=C1C2(C3=CC=C(CCCCCC)C=C3)C4=CC5=C(C(C6=C5SC7=C6SC(/C=C8C(C(C=CC=C9)=C9C\8=C(C#N)\C#N)=O)=C7)(C%10=CC=C(CCCCCC)C=C%10)C%11=CC=C(CCCCCC)C=C%11)C=C4C%12=C2C(SC(/C=C%13C(C(C=CC=C%14)=C%14C\%13=C(C#N)/C#N)=O)=C%15)=C%15S%12,1427.96,Ph100,5.33,3.15,2.18,CC(SC1=C2C3=CC=C(CC(CC)CCCC)S3)=CC1=C(C4=CC=C(CC(CC)CCCC)S4)C5=C2C=C(S5)C6=CC=C(C(C7=NN(CCCCCCCC)N=C7C(C8=CC=C(C)S8)=C9C(N%10CCCCCCCC)=O)=C9C%10=O)S6,115.918,47.9,2.42,1,1.5,CB,DBE,120,100,,Organic Electronics,10.1016/j.orgel.2018.03.005
530,240,2018,8.52,8.28,14.16,0.638,0.942,ITCNTC,5.62,3.96,1.66,CCCCCCC(C=C1)=CC=C1C2(C3=CC=C(CCCCCC)C=C3)C4=CC5=C(C(C6=C5SC7=C6SC(/C=C8C(C9=CSC=C9C\8=C(C#N)\C#N)=O)=C7)(C%10=CC=C(CCCCCC)C=C%10)C%11=CC=C(CCCCCC)C=C%11)C=C4C%12=C2C(C=C%13/C=C%14C(C%15=CSC=C%15C\%14=C(C#N)/C#N)=O)=C(S%13)S%12,1440,J71,5.4,3.32,2.08,CCC[Si](CCC)(C1=CC=C(C(C2=C3C=C(C4=CC=C(C5=C(F)C(F)=C(C6=CC=C(C)S6)C7=NN(CC(CCCCCC)CCCCCCCC)N=C57)S4)S2)=C8C(SC(C)=C8)=C3C9=CC=C([Si](CCC)(CCC)CCC)S9)S1)CCC,139,56.2,2.47,1,1,CF,NA,150,100,,Organic Electronics,10.1016/j.orgel.2018.07.018
531,241,2017,1.9,1.9,4.2,0.59,0.78,ITIC,5.61,4.02,1.59,CCCCCCC(C=C1)=CC=C1C2(C3=CC=C(CCCCCC)C=C3)C4=CC5=C(C(C6=C5SC7=C6SC(/C=C8C(C(C=CC=C9)=C9C\8=C(C#N)\C#N)=O)=C7)(C%10=CC=C(CCCCCC)C=C%10)C%11=CC=C(CCCCCC)C=C%11)C=C4C%12=C2C(SC(/C=C%13C(C(C=CC=C%14)=C%14C\%13=C(C#N)/C#N)=O)=C%15)=C%15S%12,1427.96,PDPP3T,5.4,4.07,1.33,O=C1N(C(C2=CC=C(S2)C)=C3C1=C(N(C3=O)CC(CCCCCC)CCCCCCCC)C4=CC=C(S4)C5=CC=C(S5)C)CC(CCCCCCCC)CCCCCC,738,369,2,1,2,CF,DIO,NA,75,,Phys. Chem. Chem. Phys.,10.1039/c7cp00494j
532,241,2017,3.9,3.9,8,0.63,0.78,ITIC,5.61,4.02,1.59,CCCCCCC(C=C1)=CC=C1C2(C3=CC=C(CCCCCC)C=C3)C4=CC5=C(C(C6=C5SC7=C6SC(/C=C8C(C(C=CC=C9)=C9C\8=C(C#N)\C#N)=O)=C7)(C%10=CC=C(CCCCCC)C=C%10)C%11=CC=C(CCCCCC)C=C%11)C=C4C%12=C2C(SC(/C=C%13C(C(C=CC=C%14)=C%14C\%13=C(C#N)/C#N)=O)=C%15)=C%15S%12,1427.96,PDPP4T,5.3,3.87,1.43,O=C1N(C(C2=CC=C(S2)C)=C3C1=C(N(C3=O)CC(CCCCCC)CCCCCCCC)C4=CC=C(C5=CC=C(C6=CC=C(S6)C)S5)S4)CC(CCCCCCCC)CCCCCC,312,156,2,1,2,CF,DIO,NA,75,,Phys. Chem. Chem. Phys.,10.1039/c7cp00494j
533,241,2017,4.1,4.1,9.6,0.61,0.69,ITIC,5.61,4.02,1.59,CCCCCCC(C=C1)=CC=C1C2(C3=CC=C(CCCCCC)C=C3)C4=CC5=C(C(C6=C5SC7=C6SC(/C=C8C(C(C=CC=C9)=C9C\8=C(C#N)\C#N)=O)=C7)(C%10=CC=C(CCCCCC)C=C%10)C%11=CC=C(CCCCCC)C=C%11)C=C4C%12=C2C(SC(/C=C%13C(C(C=CC=C%14)=C%14C\%13=C(C#N)/C#N)=O)=C%15)=C%15S%12,1427.96,PDPP5T,5.25,3.8,1.45,O=C1N(C(C2=CC=C(S2)C)=C3C1=C(N(C3=O)CC(CCCCCC)CCCCCCCC)C4=CC=C(C5=CC(CCCCCC)=C(C6=CC=C(C7=C(CCCCCC)C=C(C)S7)S6)S5)S4)CC(CCCCCCCC)CCCCCC,84,42,2,1,2,CF,DIO,NA,75,,Phys. Chem. Chem. Phys.,10.1039/c7cp00494j
534,241,2017,3.8,3.8,9.3,0.6,0.68,ITIC,5.61,4.02,1.59,CCCCCCC(C=C1)=CC=C1C2(C3=CC=C(CCCCCC)C=C3)C4=CC5=C(C(C6=C5SC7=C6SC(/C=C8C(C(C=CC=C9)=C9C\8=C(C#N)\C#N)=O)=C7)(C%10=CC=C(CCCCCC)C=C%10)C%11=CC=C(CCCCCC)C=C%11)C=C4C%12=C2C(SC(/C=C%13C(C(C=CC=C%14)=C%14C\%13=C(C#N)/C#N)=O)=C%15)=C%15S%12,1427.96,PDPP6T,5.33,3.83,1.5,O=C1N(C(C2=CC=C(S2)C)=C3C1=C(N(C3=O)CC(CCCCCC)CCCCCCCC)C4=CC=C(C5=CC(CCCCCC)=C(C6=CC=C(C7=CC=C(C8=C(CCCCCC)C=C(C)S8)S7)S6)S5)S4)CC(CCCCCCCC)CCCCCC,68,34,2,1,2,CF,DIO,NA,75,,Phys. Chem. Chem. Phys.,10.1039/c7cp00494j
535,242,2013,1.95,1.87,5.83,0.49,0.68,Bis-PDI-BDT-EG,5.48,3.84,1.64,O=C(N(C(CCCCCC)CCCCCC)C1=O)C2=CC=C(C3=C4C(OCCOC)=CC1C32)C5=C(C6=CC7=C(C8=CC=C(CC(CC)CCCC)S8)C9=C(C=C(C%10=CC%11C%12C%13=C%10C%14=CC=C(C(N%15C(CCCCCC)CCCCCC)=O)C%16=C%14C(C%13=CC=C%12C(N(C(CCCCCC)CCCCCC)C%11=O)=O)=C(OCCOC)C=C%16C%15=O)S9)C(C%17=CC=C(CC(CC)CCCC)S%17)=C7S6)C=C%18C%19=C5C4=CC=C%19C(N(C(CCCCCC)CCCCCC)C%18=O)=O,2237.22,P3HT,5,3.1,1.9,CC1=CC(CCCCCC)=C(C)S1,21.1,11.6,1.82,1,2.2,DCB,NA,NA,,,Polym. Chem.,10.1039/c3py00457k
536,243,2014,4.16,4.16,7.28,0.56,0.98,CSORG5,5.58,3.4,2.18,CC(C)(C)C1=CC(C2=C3C=CC(C(C)(C)C)=C2)=C(C=C1)N3CCCCCCN4C5=CC=CC=C5SC6=C4C=CC(/C=C(C#N)/C#N)=C6,636.9,P3HT,5,3.1,1.9,CC1=CC(CCCCCC)=C(C)S1,21.1,11.6,1.82,1,1,THF,DIO,NA,,,RSC Adv.,10.1039/c4ra05584e
537,244,2015,1.03,0.98,2.34,0.44,1,Cz-ECA,5.63,3.37,2.26,CCCCCCCCC(CCCCCCCC)N1C2=C(C=CC(C3=CC=C(/C=C(C(OCC)=O)\C#N)S3)=C2)C(C1=C4)=CC=C4C5=CC=C(/C=C(C(OCC)=O)\C#N)S5,816.13,P3HT,5.2,3.2,2,CC1=CC(CCCCCC)=C(C)S1,21.1,11.6,1.82,1,1.5,DCB,NA,NA,200,,RSC Adv.,10.1039/c5ra03607k
538,244,2015,2.56,2.44,4.69,0.53,1.03,Cz-RH,5.53,3.48,2.05,O=C(/C(S1)=C/C2=CC=C(C3=CC(N4C(CCCCCCCC)CCCCCCCC)=C(C=C3)C(C4=C5)=CC=C5C6=CC=C(/C=C7SC(N(CC)C\7=O)=S)S6)S2)N(CC)C1=S,912.37,P3HT,5.2,3.2,2,CC1=CC(CCCCCC)=C(C)S1,21.1,11.6,1.82,1,1.5,DCB,NA,NA,200,,RSC Adv.,10.1039/c5ra03607k
539,244,2015,0.02,0.02,0.13,0.26,0.61,Cz-IN,5.57,3.57,2,O=C(C(C=CC=C1)=C1C/2=C(C#N)/C#N)C2=C/C(S3)=CC=C3C4=CC=C(C(C=CC(C5=CC=C(/C=C6C(C(C=CC=C7)=C7C\6=C(C#N)\C#N)=O)S5)=C8)=C8N9C(CCCCCCCC)CCCCCCCC)C9=C4,978.29,P3HT,5.2,3.2,2,CC1=CC(CCCCCC)=C(C)S1,21.1,11.6,1.82,1,1.5,DCB,NA,NA,200,,RSC Adv.,10.1039/c5ra03607k
540,244,2015,1.26,1.15,2.82,0.44,1.03,Flu-ECA,5.7,3.37,2.33,O=C(OCC)/C(C#N)=C/C1=CC=C(C2=CC(C3(CCCCCCCC)CCCCCCCC)=C(C=C2)C(C3=C4)=CC=C4C5=CC=C(/C=C(C(OCC)=O)\C#N)S5)S1,801.12,P3HT,5.2,3.2,2,CC1=CC(CCCCCC)=C(C)S1,21.1,11.6,1.82,1,1,DCB,NA,NA,200,,RSC Adv.,10.1039/c5ra03607k
541,244,2015,3.08,3,5.7,0.53,1.03,Flu-RH,5.58,3.48,2.1,O=C(/C(S1)=C/C2=CC=C(C3=CC(C4(CCCCCCCC)CCCCCCCC)=C(C=C3)C(C4=C5)=CC=C5C6=CC=C(/C=C7SC(N(CC)C\7=O)=S)S6)S2)N(CC)C1=S,897.36,P3HT,5.2,3.2,2,CC1=CC(CCCCCC)=C(C)S1,21.1,11.6,1.82,1,1.5,DCB,NA,NA,200,,RSC Adv.,10.1039/c5ra03607k
542,244,2015,1.32,1.21,3.4,0.42,0.92,Flu-IN,5.7,3.63,2.07,O=C(C(C=CC=C1)=C1C/2=C(C#N)/C#N)C2=C/C(S3)=CC=C3C4=CC=C(C(C=CC(C5=CC=C(/C=C6C(C(C=CC=C7)=C7C\6=C(C#N)\C#N)=O)S5)=C8)=C8C9(CCCCCCCC)CCCCCCCC)C9=C4,963.27,P3HT,5.2,3.2,2,CC1=CC(CCCCCC)=C(C)S1,21.1,11.6,1.82,1,1,DCB,NA,NA,200,,RSC Adv.,10.1039/c5ra03607k
543,245,2016,6.48,6.13,12.18,0.6013,0.89,ITIC,5.48,3.88,1.6,CCCCCCC(C=C1)=CC=C1C2(C3=CC=C(CCCCCC)C=C3)C4=CC5=C(C(C6=C5SC7=C6SC(/C=C8C(C(C=CC=C9)=C9C\8=C(C#N)\C#N)=O)=C7)(C%10=CC=C(CCCCCC)C=C%10)C%11=CC=C(CCCCCC)C=C%11)C=C4C%12=C2C(SC(/C=C%13C(C(C=CC=C%14)=C%14C\%13=C(C#N)/C#N)=O)=C%15)=C%15S%12,1427.96,J40,5.4,2.9,2.5,CC1=CC(C(S1)=C2OCC(CCCCCCCC)CCCCCCCCCC)=C(C3=C2C=C(C4=CC=C(C5=C(F)C(F)=C(C6=CC=C(C)S6)C7=NN(CC(CC)CCCC)N=C57)S4)S3)OCC(CCCCCCCC)CCCCCCCCCC,153.14,58.9,2.6,1,1,CF,NA,120,,,Sci. China Chem.,10.1007/s11426-016-0173-y
544,246,2017,8.24,8.17,13.12,0.661,0.95,ITIC,5.48,3.88,1.6,CCCCCCC(C=C1)=CC=C1C2(C3=CC=C(CCCCCC)C=C3)C4=CC5=C(C(C6=C5SC7=C6SC(/C=C8C(C(C=CC=C9)=C9C\8=C(C#N)\C#N)=O)=C7)(C%10=CC=C(CCCCCC)C=C%10)C%11=CC=C(CCCCCC)C=C%11)C=C4C%12=C2C(SC(/C=C%13C(C(C=CC=C%14)=C%14C\%13=C(C#N)/C#N)=O)=C%15)=C%15S%12,1427.96,J61-F,5.45,2.91,2.54,CC1=CC(C(S1)=C2C3=CC=C(SCCCCCCCCCCCC)S3)=C(C4=C2C=C(C5=CC=C(C6=C(F)C(F)=C(C7=CC=C(C)O7)C8=NN(CC(CCCCCC)CCCCCCCC)N=C68)O5)S4)C9=CC=C(SCCCCCCCCCCCC)S9,20.874,14.2,1.47,1,1.5,CF,NA,170,,,Sci. China Chem.,10.1007/s11426-017-9030-9
545,247,2014,4.39,4.39,8.26,0.611,0.87,SDIPBI (PDI),5.95,3.87,2.08,O=C(N(C(CCCCC)CCCCC)C1=O)C2=CC=C(C3=C4C=CC1C32)C5=C(C(C=C6C(N(C(CCCCC)CCCCC)C7=O)=O)=C8C9=C6C7=CC=C9C%10=CC=C(C%11=O)C%12C%10=C8C=CC%12C(N%11C(CCCCC)CCCCC)=O)C=C%13C%14=C5C4=CC=C%14C(N(C(CCCCC)CCCCC)C%13=O)=O,1399.91,PBDB-T,5.32,3.29,2.03,CC(SC1=C2C3=CC=C(CC(CC)CCCC)S3)=CC1=C(C4=CC=C(CC(CC)CCCC)S4)C5=C2C=C(S5)C6=CC=C(C7=C8C(C(C9=C(CC(CC)CCCC)SC(CC(CC)CCCC)=C9C8=O)=O)=C(C%10=CC=C(C)S%10)S7)S6,117,58.5,2,1,1,CB,DIO/CN,NA,85,,Small,10.1002/smll.201401082
546,248,2018,5.86,5.51,9.78,0.6114,0.98,F-ITIC,5.65,4.09,1.56,CCCCCCC(C=C1)=CC=C1C2(C3=CC=C(CCCCCC)C=C3)C4=CC5=C(C(C6=C5SC7=C6SC(/C=C8C(C(C=CC(F)=C9)=C9C\8=C(C#N)\C#N)=O)=C7)(C%10=CC=C(CCCCCC)C=C%10)C%11=CC=C(CCCCCC)C=C%11)C=C4C%12=C2C(SC(/C=C%13C(C(C=CC(F)=C%14)=C%14C\%13=C(C#N)/C#N)=O)=C%15)=C%15S%12,1463.94,PBTIBDTT-S,5.53,3.65,1.88,CC(SC1=C2C3=CC=C(SCC(CC)CCCC)S3)=CC1=C(C4=CC=C(SCC(CC)CCCC)S4)C5=C2C=C(S5)C6=CC(CCCCCCCCCC)=C(C7=CC8=C(C9=C(C(N(CC(CCCCCC)CCCCCCCC)C8=O)=O)C=C(C%10=C(CCCCCCCCCC)C=C(C)S%10)S9)S7)S6,30.72,12,2.56,1,0.4,CB,NA,NA,,,Small,10.1002/smll.201704491
547,248,2018,9.12,8.88,14.4,0.6571,0.96,F-ITIC,5.65,4.09,1.56,CCCCCCC(C=C1)=CC=C1C2(C3=CC=C(CCCCCC)C=C3)C4=CC5=C(C(C6=C5SC7=C6SC(/C=C8C(C(C=CC(F)=C9)=C9C\8=C(C#N)\C#N)=O)=C7)(C%10=CC=C(CCCCCC)C=C%10)C%11=CC=C(CCCCCC)C=C%11)C=C4C%12=C2C(SC(/C=C%13C(C(C=CC(F)=C%14)=C%14C\%13=C(C#N)/C#N)=O)=C%15)=C%15S%12,1463.94,PBTIBDTT-S,5.53,3.65,1.88,CC(SC1=C2C3=CC=C(SCC(CC)CCCC)S3)=CC1=C(C4=CC=C(SCC(CC)CCCC)S4)C5=C2C=C(S5)C6=CC(CCCCCCCCCC)=C(C7=CC8=C(C9=C(C(N(CC(CCCCCC)CCCCCCCC)C8=O)=O)C=C(C%10=C(CCCCCCCCCC)C=C(C)S%10)S9)S7)S6,43.7,23,1.9,1,0.67,CB,NA,NA,,,Small,10.1002/smll.201704491
548,248,2018,9.65,9.37,15.12,0.6792,0.94,F-ITIC,5.65,4.09,1.56,CCCCCCC(C=C1)=CC=C1C2(C3=CC=C(CCCCCC)C=C3)C4=CC5=C(C(C6=C5SC7=C6SC(/C=C8C(C(C=CC(F)=C9)=C9C\8=C(C#N)\C#N)=O)=C7)(C%10=CC=C(CCCCCC)C=C%10)C%11=CC=C(CCCCCC)C=C%11)C=C4C%12=C2C(SC(/C=C%13C(C(C=CC(F)=C%14)=C%14C\%13=C(C#N)/C#N)=O)=C%15)=C%15S%12,1463.94,PBTIBDTT-S,5.53,3.65,1.88,CC(SC1=C2C3=CC=C(SCC(CC)CCCC)S3)=CC1=C(C4=CC=C(SCC(CC)CCCC)S4)C5=C2C=C(S5)C6=CC(CCCCCCCCCC)=C(C7=CC8=C(C9=C(C(N(CC(CCCCCC)CCCCCCCC)C8=O)=O)C=C(C%10=C(CCCCCCCCCC)C=C(C)S%10)S9)S7)S6,56.42,31,1.82,1,1,CB,NA,NA,,,Small,10.1002/smll.201704491
549,248,2018,10.55,10.29,16.33,0.6873,0.94,F-ITIC,5.65,4.09,1.56,CCCCCCC(C=C1)=CC=C1C2(C3=CC=C(CCCCCC)C=C3)C4=CC5=C(C(C6=C5SC7=C6SC(/C=C8C(C(C=CC(F)=C9)=C9C\8=C(C#N)\C#N)=O)=C7)(C%10=CC=C(CCCCCC)C=C%10)C%11=CC=C(CCCCCC)C=C%11)C=C4C%12=C2C(SC(/C=C%13C(C(C=CC(F)=C%14)=C%14C\%13=C(C#N)/C#N)=O)=C%15)=C%15S%12,1463.94,PBTIBDTT-S,5.53,3.65,1.88,CC(SC1=C2C3=CC=C(SCC(CC)CCCC)S3)=CC1=C(C4=CC=C(SCC(CC)CCCC)S4)C5=C2C=C(S5)C6=CC(CCCCCCCCCC)=C(C7=CC8=C(C9=C(C(N(CC(CCCCCC)CCCCCCCC)C8=O)=O)C=C(C%10=C(CCCCCCCCCC)C=C(C)S%10)S9)S7)S6,72.96,38,1.92,1,1,CB,NA,NA,,,Small,10.1002/smll.201704491
550,249,2018,8.13,8.13,14.66,0.609,0.91,IDT-4CN,5.45,3.95,1.5,O=C(/C(S/1)=C/C(C2=NSN=C32)=CC=C3C(S4)=CC5=C4C6=CC(C(C7=CC=C(CCCCCC)C=C7)(C8=CC=C(CCCCCC)C=C8)C9=C%10SC(C%11=CC=C(/C=C%12S/C(N(CC)C\%12=O)=C(C#N)\C#N)C%13=NSN=C%11%13)=C9)=C%10C=C6C5(C%14=CC=C(CCCCCC)C=C%14)C%15=CC=C(CCCCCC)C=C%15)N(CC)C1=C([N+]#[C-])\C#N,1582.17,PBDB-T,5.27,3.5,1.77,CC(SC1=C2C3=CC=C(CC(CC)CCCC)S3)=CC1=C(C4=CC=C(CC(CC)CCCC)S4)C5=C2C=C(S5)C6=CC=C(C7=C8C(C(C9=C(CC(CC)CCCC)SC(CC(CC)CCCC)=C9C8=O)=O)=C(C%10=CC=C(C)S%10)S7)S6,117,58.5,2,1,1.2,CB,CN,NA,,,Small Methods,10.1002/smtd.201700330
551,250,2018,8.7,8.4,13.1,0.639,1.04,TIDT-BT-R2,5.25,3.65,1.6,O=C(/C(S1)=C/C(C2=NSN=C32)=CC=C3C(S4)=CC=C4C5=CC(C(C6=CC=C(CCCCCC)C=C6)(C7=CC=C(CCCCCC)C=C7)C8=C9SC(C%10=CC=C(/C=C%11SC(N(CC)C\%11=O)=S)C%12=NSN=C%10%12)=C8)=C9C=C5)N(CC)C1=S,1185.66,PTB7-Th,5.15,3.44,1.71,O=C(OCC(CC)CCCC)C1=C(F)C2=C(C)SC(C3=CC4=C(C(C5=CC=C(CC(CC)CCCC)S5)=C(C=C(C)S6)C6=C4C7=CC=C(CC(CC)CCCC)S7)S3)=C2S1,124,72.9,1.7,1,1,CB,DIO,NA,,,Small Methods,10.1002/smtd.201700373
552,250,2018,5.6,5,10.3,0.523,1.03,TIDT-BT-R4,5.28,3.67,1.61,O=C(/C(S1)=C/C(C2=NSN=C32)=CC=C3C(S4)=CC=C4C5=CC(C(C6=CC=C(CCCCCC)C=C6)(C7=CC=C(CCCCCC)C=C7)C8=C9SC(C%10=CC=C(/C=C%11SC(N(CCCCCC)C\%11=O)=S)C%12=NSN=C%10%12)=C8)=C9C=C5)N(CCCCCC)C1=S,1297.88,PTB7-Th,5.15,3.44,1.71,O=C(OCC(CC)CCCC)C1=C(F)C2=C(C)SC(C3=CC4=C(C(C5=CC=C(CC(CC)CCCC)S5)=C(C=C(C)S6)C6=C4C7=CC=C(CC(CC)CCCC)S7)S3)=C2S1,124,72.9,1.7,1,1,CB,DIO,NA,,,Small Methods,10.1002/smtd.201700373
553,251,2018,0.37,0.33,1.39,0.327,0.813,ITIC-Th,5.66,3.93,1.73,O=C(C(C=CC=C1)=C1C/2=C(C#N)\C#N)C2=C/C3=CC(S4)=C(S3)C5=C4C6=CC(C(C7=C8SC9=C7SC(/C=C%10C(C(C=CC=C%11)=C%11C\%10=C(C#N)\C#N)=O)=C9)(C%12=CC=C(CCCCCC)S%12)C%13=CC=C(CCCCCC)S%13)=C8C=C6C(C%14=CSC(CCCCCC)=C%14)5C%15=CC=C(CCCCCC)S%15,1452.04,PT5T,5.24,3.3,1.94,CC1=C(C=C(S1)C2=C(C(F)=C(C3=NN(CCC)N=C32)C4=CC(CC(CCCCCCCCCC)CCCCCCCCCCCC)=C(S4)C5=CC=C(C6=CC=C(C7=CC=C(S7)C)S6)S5)F)CC(CCCCCCCCCCCC)CCCCCCCCCC,93.6,44.8,2.089285714,1,1.5,CB,NA,NA,120,,Small Methods,10.1002/smtd.201700415
554,251,2018,9.69,9.23,16.64,0.708,0.822,ITIC-Th,5.66,3.93,1.73,O=C(C(C=CC=C1)=C1C/2=C(C#N)\C#N)C2=C/C3=CC(S4)=C(S3)C5=C4C6=CC(C(C7=C8SC9=C7SC(/C=C%10C(C(C=CC=C%11)=C%11C\%10=C(C#N)\C#N)=O)=C9)(C%12=CC=C(CCCCCC)S%12)C%13=CC=C(CCCCCC)S%13)=C8C=C6C(C%14=CSC(CCCCCC)=C%14)5C%15=CC=C(CCCCCC)S%15,1452.04,PT5T-2F,5.36,3.45,1.91,CC1=C(C=C(S1)C2=C(C(F)=C(C3=NN(CCC)N=C32)C4=CC(CC(CCCCCCCCCC)CCCCCCCCCCCC)=C(S4)C5=CC=C(C6=C(F)C(F)=C(C7=CC=C(S7)C)S6)S5)F)CC(CCCCCCCCCCCC)CCCCCCCCCC,99.9,58.9,1.696095076,1,1.5,CB,NA,NA,120,,Small Methods,10.1002/smtd.201700415
555,252,2016,0.82,0.8,2.16,0.3,1.24,NI-TAT-NI-C8,5.84,3.41,2.43,O=C(N(CCCCCCCC)C1=O)C2=CC=CC3=C2C1=CC=C3C4=CC=C(C#CC(S5)=CC=C5C6=CC=C7C8=C6C=CC=C8C(N(CCCCCCCC)C7=O)=O)S4,805.06,PCDTBT,5.23,3.38,1.85,CC1=CC2=C(C=C1)C(C=CC(C3=CC=C(S3)C4=C(OCCCCCCCCCCCC)C(OCCCCCCCCCCCC)=C(C5=NSN=C45)C6=CC=C(S6)C)=C7)=C7N2CCCCCCCC,73,37,1.972972973,1,3,DCB,NA,NA,75,,Synthetic Metals,10.1016/j.synthmet.2016.07.015
556,252,2016,1.68,1.65,3.71,0.36,1.22,NI-TAT-NI-C12,5.83,3.39,2.44,O=C(N(CCCCCCCCCCCCCC)C1=O)C2=CC=CC3=C2C1=CC=C3C4=CC=C(C#CC(S5)=CC=C5C6=CC=C7C8=C6C=CC=C8C(N(CCCCCCCCCCCCCC)C7=O)=O)S4,973.39,PCDTBT,5.23,3.38,1.85,CC1=CC2=C(C=C1)C(C=CC(C3=CC=C(S3)C4=C(OCCCCCCCCCCCC)C(OCCCCCCCCCCCC)=C(C5=NSN=C45)C6=CC=C(S6)C)=C7)=C7N2CCCCCCCC,73,37,1.972972973,1,3,DCB,NA,NA,75,,Synthetic Metals,10.1016/j.synthmet.2016.07.015
557,252,2016,0.24,0.23,0.9,0.22,1.2,NI-TAT-NI-C16,5.95,3.49,2.46,O=C(N(CC(CCCCCC)CCCCCCCC)C1=O)C2=CC=CC3=C2C1=CC=C3C4=CC=C(C#CC(S5)=CC=C5C6=CC=C7C8=C6C=CC=C8C(N(CC(CCCCCC)CCCCCCCC)C7=O)=O)S4,1029.5,PCDTBT,5.23,3.38,1.85,CC1=CC2=C(C=C1)C(C=CC(C3=CC=C(S3)C4=C(OCCCCCCCCCCCC)C(OCCCCCCCCCCCC)=C(C5=NSN=C45)C6=CC=C(S6)C)=C7)=C7N2CCCCCCCC,73,37,1.972972973,1,3,DCB,NA,NA,70,,Synthetic Metals,10.1016/j.synthmet.2016.07.015
558,253,2018,6.41,6.31,11.1,0.56,1.031,m-ITIC,5.54,3.95,1.59,O=C(C(C=CC=C1)=C1C/2=C(C#N)\C#N)C2=C/C3=CC(S4)=C(S3)C5=C4C6=CC(C(C7=C8SC9=C7SC(/C=C%10C(C(C=CC=C%11)=C%11C\%10=C(C#N)\C#N)=O)=C9)(C%12=CC=CC(CCCCCC)=C%12)C%13=CC(CCCCCC)=CC=C%13)=C8C=C6C(C%14=CC(CCCCCC)=CC=C%14)5C%15=CC=CC(CCCCCC)=C%15,1427.96,PJ1,5.38,3.38,2,CC1=CC(C(S1)=C2C3=CC=C([Si](CCC)(CCC)CCC)S3)=C(C4=C2C=C(C5=CC(CCCCCCCCCCCC)=C(C6=C7C(C(N(CC(CCCCCC)CCCCCCCC)C7=O)=O)=C(C8=C(CCCCCCCCCCCC)C=C(C)S8)S6)S5)S4)C9=CC=C([Si](CCC)(CCC)CCC)S9,138.724,87.8,1.58,1,1.5,CF,DIO,130,111,,Energy Environ. Sci.,10.1039/c8ee01546e
559,253,2018,6.18,6.05,12,0.536,0.958,IDIC,5.67,4.1,1.57,O=C(C(C=CC=C1)=C1C/2=C(C#N)\C#N)C2=C/C(S3)=CC4=C3C5=C(C4(CCCCCC)CCCCCC)C=C6C(C(CCCCCC)(CCCCCC)C7=C6SC(/C=C8C(C(C=CC=C9)=C9C\8=C(C#N)/C#N)=O)=C7)=C5,1011.4,PJ1,5.38,3.38,2,CC1=CC(C(S1)=C2C3=CC=C([Si](CCC)(CCC)CCC)S3)=C(C4=C2C=C(C5=CC(CCCCCCCCCCCC)=C(C6=C7C(C(N(CC(CCCCCC)CCCCCCCC)C7=O)=O)=C(C8=C(CCCCCCCCCCCC)C=C(C)S8)S6)S5)S4)C9=CC=C([Si](CCC)(CCC)CCC)S9,138.724,87.8,1.58,1,1.5,CF,DIO,130,109,,Energy Environ. Sci.,10.1039/c8ee01546e
560,253,2018,2.06,1.95,5.9,0.406,0.961,AIDIC,5.7,4.01,1.69,O=C(C(C=CC=C1)=C1C/2=C(C#N)\C#N)C2=C/C(S3)=CC=C3C4=CC=C5C(C(CCCCCC)(CCCCCC)C6=C5SC(/C=C7C(C(C=CC=C8)=C8C\7=C(C#N)/C#N)=O)=C6)=C4,831.07,PJ1,5.38,3.38,2,CC1=CC(C(S1)=C2C3=CC=C([Si](CCC)(CCC)CCC)S3)=C(C4=C2C=C(C5=CC(CCCCCCCCCCCC)=C(C6=C7C(C(N(CC(CCCCCC)CCCCCCCC)C7=O)=O)=C(C8=C(CCCCCCCCCCCC)C=C(C)S8)S6)S5)S4)C9=CC=C([Si](CCC)(CCC)CCC)S9,138.724,87.8,1.58,1,1.5,CF,DIO,130,115,,Energy Environ. Sci.,10.1039/c8ee01546e
561,253,2018,10.34,10.19,16.8,0.623,0.988,m-ITIC,5.54,3.95,1.59,O=C(C(C=CC=C1)=C1C/2=C(C#N)\C#N)C2=C/C3=CC(S4)=C(S3)C5=C4C6=CC(C(C7=C8SC9=C7SC(/C=C%10C(C(C=CC=C%11)=C%11C\%10=C(C#N)\C#N)=O)=C9)(C%12=CC=CC(CCCCCC)=C%12)C%13=CC(CCCCCC)=CC=C%13)=C8C=C6C(C%14=CC(CCCCCC)=CC=C%14)5C%15=CC=CC(CCCCCC)=C%15,1427.96,PJ2,5.14,3.33,1.81,CC1=CC(C(S1)=C2C3=CC=C([Si](CCC)(CCC)CCC)S3)=C(C4=C2C=C(C5=CC=C(C6=C7C(C(C8=C(CC(CC)CCCC)SC(CC(CC)CCCC)=C8C7=O)=O)=C(C9=CC=C(C)S9)S6)S5)S4)C%10=CC=C([Si](CCC)(CCC)CCC)S%10,115.344,80.1,1.44,1,1.5,CF,DIO,130,113,,Energy Environ. Sci.,10.1039/c8ee01546e