ID,Ref,year,PCE_max(%),PCE_ave(%),Jsc(mA/cm2),FF,Voc(V),Nickname(n),-HOMO_n(eV),-LUMO_n(eV),Eg_n(eV),n(SMILES),M (g/mol),Nickname(p),-HOMO_p(eV),-LUMO_p(eV),Eg_p(eV),p(SMILES),Mw (kg/mol),Mn(kg/mol),PDI,p/n ratio (p),p/n ratio (n),Solvent,Additive,TA (oC),thick (nm),,Journal,DOI
377,172,2018,11.5,11,20.05,0.64,0.896,IT-4F,5.66,4.14,1.52,CCCCCCC(C=C1)=CC=C1C2(C3=CC=C(CCCCCC)C=C3)C4=CC5=C(C(C6=C5SC7=C6SC(/C=C8C(C(C=C(F)C(F)=C9)=C9C\8=C(C#N)\C#N)=O)=C7)(C%10=CC=C(CCCCCC)C=C%10)C%11=CC=C(CCCCCC)C=C%11)C=C4C%12=C2C(SC(/C=C%13C(C(C=C(F)C(F)=C%14)=C%14C\%13=C(C#N)/C#N)=O)=C%15)=C%15S%12,1499.92,PDTB-EF-T (P1),5.51,3.59,1.92,CCCCC(CC)CSC1=CC=C(C(C2=C3C=C(C4=CC(C(OCCCCCCCC)=O)=C(C5=CC=C(C)S5)S4)S2)=C6C(SC(C7=CC(C(OCCCCCCCC)=O)=C(C)S7)=C6)=C3C8=CC=C(SCC(CC)CCCC)S8)S1,66.82,25.7,2.6,1,1,CB,DIO,150,,,J. Am. Chem. Soc.,10.1021/jacs.8b02695
378,172,2018,14.2,14,20.73,0.76,0.9,IT-4F,5.66,4.14,1.52,CCCCCCC(C=C1)=CC=C1C2(C3=CC=C(CCCCCC)C=C3)C4=CC5=C(C(C6=C5SC7=C6SC(/C=C8C(C(C=C(F)C(F)=C9)=C9C\8=C(C#N)\C#N)=O)=C7)(C%10=CC=C(CCCCCC)C=C%10)C%11=CC=C(CCCCCC)C=C%11)C=C4C%12=C2C(SC(/C=C%13C(C(C=C(F)C(F)=C%14)=C%14C\%13=C(C#N)/C#N)=O)=C%15)=C%15S%12,1499.92,PDTB-EF-T (P2),5.5,3.59,1.91,CCCCC(CC)CSC1=CC=C(C(C2=C3C=C(C4=CC(C(OCCCCCCCCCC)=O)=C(C5=CC=C(C)S5)S4)S2)=C6C(SC(C7=CC(C(OCCCCCCCCCC)=O)=C(C)S7)=C6)=C3C8=CC=C(SCC(CC)CCCC)S8)S1,163.59,39.9,4.1,1,1,CB,DIO,150,,,J. Am. Chem. Soc.,10.1021/jacs.8b02695
379,172,2018,11.2,10.8,20.31,0.61,0.904,IT-4F,5.66,4.14,1.52,CCCCCCC(C=C1)=CC=C1C2(C3=CC=C(CCCCCC)C=C3)C4=CC5=C(C(C6=C5SC7=C6SC(/C=C8C(C(C=C(F)C(F)=C9)=C9C\8=C(C#N)\C#N)=O)=C7)(C%10=CC=C(CCCCCC)C=C%10)C%11=CC=C(CCCCCC)C=C%11)C=C4C%12=C2C(SC(/C=C%13C(C(C=C(F)C(F)=C%14)=C%14C\%13=C(C#N)/C#N)=O)=C%15)=C%15S%12,1499.92,PDTB-EF-T (P3),5.54,3.6,1.94,CCCCC(CC)CSC1=CC=C(C(C2=C3C=C(C4=CC(C(OCCC(C)CCCC(C)C)=O)=C(C5=CC=C(C)S5)S4)S2)=C6C(SC(C7=CC(C(OCCC(C)CCCC(C)C)=O)=C(C)S7)=C6)=C3C8=CC=C(SCC(CC)CCCC)S8)S1,193.44,37.2,5.2,1,1,CB,DIO,150,,,J. Am. Chem. Soc.,10.1021/jacs.8b02695
380,173,2018,7.77,7.77,12.73,0.58,1.06,FIDTT-2PDI,5.55,3.75,1.8,O=C(N(C(CCCCC)CCCCC)C1=O)C2=CC3=C(SC4=C5SC6=C4C(C7=CC=C(CCCCCC)C=C7)(C8=CC=C(CCCCCC)C=C8)C9=C6C=C%10C(C(S%11)=C(C(C%12=CC=C(CCCCCC)C=C%12)%10C%13=CC=C(CCCCCC)C=C%13)C%14=C%11C%15=C%16C=C%17C%18=C%19C%16=C(C(C=C%20C(N(C(CCCCC)CCCCC)C%21=O)=O)=C%15S%14)C(C%20=C%21C=C%22)=C%22C%19=CC=C%18C(N(C(CCCCC)CCCCC)C%17=O)=O)=C9)C5=C%23C=C%24C%25=C%26C%23=C3C(C2=C1C=C%27)=C%27C%26=CC=C%25C(N(C(CCCCC)CCCCC)C%24=O)=O,2409.41,PTB7-Th,5.33,3.68,1.65,O=C(OCC(CC)CCCC)C1=C(F)C2=C(C)SC(C3=CC4=C(C(C5=CC=C(CC(CC)CCCC)S5)=C(C=C(C)S6)C6=C4C7=CC=C(CC(CC)CCCC)S7)S3)=C2S1,124,72.9,1.7,1,1,DCB,CN,NA,,,J. Am. Chem. Soc.,10.1021/jacs.8b05834
381,174,2017,0.1949,0.1949,1.7203,0.3711,0.3,PDI (SM-1),5.67,3.8,1.87,O=C(N(CCCCCCCC)C1=O)C2=CC=C(C3=C4C(C5=CC=CS5)=CC1C32)C6=C(C7=CC=CS7)C=C8C9=C6C4=CC=C9C(N(CCCCCCCC)C8=O)=O,781.04,P3HT,5,3.1,1.9,CC1=CC(CCCCCC)=C(C)S1,21.1,11.6,1.82,1,1,CF,NA,NA,,,J. Electronic Mater.,10.1007/s11664-017-5706-3
382,174,2017,0.0233,0.0233,0.2291,0.3414,0.29,PDI (SM-2),5.58,3.81,1.77,O=C(N(CCCCCCCC)C1=O)C2=CC=C(C3=C4C(C5=CC=C(CCCCCC)S5)=CC1C32)C6=C(C7=CC=C(CCCCCC)S7)C=C8C9=C6C4=CC=C9C(N(CCCCCCCC)C8=O)=O,949.37,P3HT,5,3.1,1.9,CC1=CC(CCCCCC)=C(C)S1,21.1,11.6,1.82,1,1,CF,NA,NA,,,J. Electronic Mater.,10.1007/s11664-017-5706-3
383,174,2017,0.1052,0.1052,1.0021,0.3599,0.3,PDI (SM-3),5.38,3.9,1.48,O=C(N(CCCCCCCC)C1=O)C2=CC=C(C3=C4C(C5=CC=C(C6=CC=CS6)S5)=CC1C32)C7=C(C8=CC=C(C9=CC=CS9)S8)C=C%10C%11=C7C4=CC=C%11C(N(CCCCCCCC)C%10=O)=O,945.28,P3HT,5,3.1,1.9,CC1=CC(CCCCCC)=C(C)S1,21.1,11.6,1.82,1,1,CF,NA,NA,,,J. Electronic Mater.,10.1007/s11664-017-5706-3
384,174,2017,0.0656,0.0656,0.657,0.3651,0.29,PDI (SM-4),5.37,3.9,1.47,O=C(N(CCCCCCCC)C1=O)C2=CC=C(C3=C4C(C5=CC=C(C6=CC=C(CCCCCC)S6)S5)=CC1C32)C7=C(C8=CC=C(C9=CC=C(CCCCCC)S9)S8)C=C%10C%11=C7C4=CC=C%11C(N(CCCCCCCC)C%10=O)=O,1113.61,P3HT,5,3.1,1.9,CC1=CC(CCCCCC)=C(C)S1,21.1,11.6,1.82,1,1,CF,NA,NA,,,J. Electronic Mater.,10.1007/s11664-017-5706-3
385,175,2014,1.6,1.6,4.87,0.57,0.58,DTI,6.1,3.9,2.2,O=C(N(C(CCCCCCCC)CCCCCCCC)C1=O)C2=CC=C3C4=C2C1=CC=C4C5=C6C(C7=CC=C8C9=C7C6=CC=C9C(N(C(CCCCCCCC)CCCCCCCC)C8=O)=O)=C%10C(C%11=CC=C%12C%13=C%11C%10=CC=C%13C(N(C(CCCCCCCC)CCCCCCCC)C%12=O)=O)=C53,1372.97,P3HT,5.2,3.2,2,CC1=CC(CCCCCC)=C(C)S1,21.1,11.6,1.82,1,1,DCB,NA,NA,,,J. Mater. Chem. A,10.1039/c3ta14839d
386,176,2014,3.71,3.64,8.1,0.519,0.8,PDI,5.9,3.8,2.1,O=C(N(C(CC)CC)C1=O)C2=CC=C(C3=C4C=CC1C32)C5=CC=C6C7=C5C4=CC=C7C(N(C(CC)CC)C6=O)=O,532.64,PBDTTT-C-T,5.11,3.25,1.86,O=C(C1=CC2=C(SC(C3=CC4=C(S3)C(C5=CC=C(S5)CC(CCCC)CC)=C6C=C(SC6=C4C7=CC=C(S7)CC(CCCC)CC)C)=C2S1)C)CC(CC)CCCC,56,20,2.8,1,2.33,CF,DIO,NA,100,,J. Mater. Chem. A,10.1039/c4ta02851a
387,177,2014,0.19,0.19,0.41,0.62,0.75,Cor,6.3,2.65,3.65,C12=C3C4=C5C1=C6C=CC2=CC=C3C=CC4=CC=C5C=C6,250.3,P3HT,5,3.1,1.9,CC1=CC(CCCCCC)=C(C)S1,21.1,11.6,1.82,1,1,CF,NA,100,,,J. Mater. Chem. A,10.1039/c4ta05310a
388,177,2014,0.32,0.32,0.96,0.4,0.83,Cor-PI,6.3,3.1,3.2,O=C(N1CCCCCC)C2=CC(C3=C4C5=C(C6=C3)C(C7=C58)=C(C=C6)C=CC7=CC=C8C=C4)=CC=C2C1=O,479.58,P3HT,5,3.1,1.9,CC1=CC(CCCCCC)=C(C)S1,21.1,11.6,1.82,1,1,CF,NA,100,,,J. Mater. Chem. A,10.1039/c4ta05310a
389,177,2014,1.03,1.03,2.75,0.46,0.82,Cor-NI,6.28,3.24,3.04,O=C(N(CCCCCC)C1=O)C2=CC=C(C3=C4C5=C(C6=C3)C(C7=C58)=C(C=C6)C=CC7=CC=C8C=C4)C9=C2C1=CC=C9,529.64,P3HT,5,3.1,1.9,CC1=CC(CCCCCC)=C(C)S1,21.1,11.6,1.82,1,1,CF,NA,100,,,J. Mater. Chem. A,10.1039/c4ta05310a
390,178,2015,3.93,3.93,8.33,0.523,0.9,DC-IDT2T,5.43,3.85,1.58,CCCCCCC(C=C1)=CC=C1C2(C3=CC=C(CCCCCC)C=C3)C4=CC5=C(C(C6=C5SC(C7=CC=C(/C=C8C(C(C=CC=C9)=C9C\8=C(C#N)\C#N)=O)S7)=C6)(C%10=CC=C(CCCCCC)C=C%10)C%11=CC=C(CCCCCC)C=C%11)C=C4C%12=C2C=C(C%13=CC=C(/C=C%14C(C(C=CC=C%15)=C%15C\%14=C(C#N)\C#N)=O)S%13)S%12,1480.03,PBDTTT-C-T,5.11,3.25,1.86,O=C(C1=CC2=C(SC(C3=CC4=C(S3)C(C5=CC=C(S5)CC(CCCC)CC)=C6C=C(SC6=C4C7=CC=C(S7)CC(CCCC)CC)C)=C2S1)C)CC(CC)CCCC,56,20,2.8,1,2,CF/DCB,NA,NA,,,J. Mater. Chem. A,10.1039/c4ta06004k
391,179,2015,4.3,4.3,9.2,0.49,0.96,TPC-PDI4,6,3.75,2.25,O=C(N(C(CCCCCC)CCCCCC)C1=O)C2=CC=C(C3=C4C=CC1C32)C5=C(C6=CC=C(C(C7=CC=C(C8=C(C9=CC=C(C%10=O)C%11C9=C%12C=CC%11C(N%10C(CCCCCC)CCCCCC)=O)C(C%12=CC=C%13C(N(C(CCCCCC)CCCCCC)C%14=O)=O)=C%13C%14=C8)C=C7)(C%15=CC=C(C%16=C(C%17=C%18C=CC%19C%17C(C(N(C(CCCCCC)CCCCCC)C%19=O)=O)=C%16)C%20=CC=C%21C%22=C%20C%18=CC=C%22C(N(C(CCCCCC)CCCCCC)C%21=O)=O)C=C%15)C%23=CC=C(C%24=C(C%25=C%26C=CC%27C%25C(C(N(C(CCCCCC)CCCCCC)C%27=O)=O)=C%24)C%28=CC=C%29C%30=C%28C%26=CC=C%30C(N(C(CCCCCC)CCCCCC)C%29=O)=O)C=C%23)C=C6)C=C%31C%32=C5C4=CC=C%32C(N(C(CCCCCC)CCCCCC)C%31=O)=O,3340.66,PffBT4T-2DT,5.24,3.59,1.65,CC1=C(C=C(S1)C2=C(C(F)=C(C3=NSN=C32)C4=CC(CC(CCCCCCCCCC)CCCCCCCCCCCC)=C(S4)C5=CC=C(S5)C6=CC=C(S6)C)F)CC(CCCCCCCCCCCC)CCCCCCCCCC,140,70,2,1,1.5,CB,NA,100,,,J. Mater. Chem. A,10.1039/c5ta03093e
392,179,2015,4.3,4.3,8.5,0.53,0.94,TPSi-PDI4,6.01,3.75,2.26,O=C(N(C(CCCCCC)CCCCCC)C1=O)C2=CC=C(C3=C4C=CC1C32)C5=C(C6=CC=C([Si](C7=CC=C(C8=C(C9=CC=C(C%10=O)C%11C9=C%12C=CC%11C(N%10C(CCCCCC)CCCCCC)=O)C(C%12=CC=C%13C(N(C(CCCCCC)CCCCCC)C%14=O)=O)=C%13C%14=C8)C=C7)(C%15=CC=C(C%16=C(C%17=C%18C=CC%19C%17C(C(N(C(CCCCCC)CCCCCC)C%19=O)=O)=C%16)C%20=CC=C%21C%22=C%20C%18=CC=C%22C(N(C(CCCCCC)CCCCCC)C%21=O)=O)C=C%15)C%23=CC=C(C%24=C(C%25=C%26C=CC%27C%25C(C(N(C(CCCCCC)CCCCCC)C%27=O)=O)=C%24)C%28=CC=C%29C%30=C%28C%26=CC=C%30C(N(C(CCCCCC)CCCCCC)C%29=O)=O)C=C%23)C=C6)C=C%31C%32=C5C4=CC=C%32C(N(C(CCCCCC)CCCCCC)C%31=O)=O,3356.73,PffBT4T-2DT,5.24,3.59,1.65,CC1=C(C=C(S1)C2=C(C(F)=C(C3=NSN=C32)C4=CC(CC(CCCCCCCCCC)CCCCCCCCCCCC)=C(S4)C5=CC=C(S5)C6=CC=C(S6)C)F)CC(CCCCCCCCCCCC)CCCCCCCCCC,140,70,2,1,1.5,CB,NA,100,,,J. Mater. Chem. A,10.1039/c5ta03093e
393,179,2015,1.6,1.6,5,0.37,0.92,TPGe-PDI4,5.94,3.68,2.26,O=C(N(C(CCCCCC)CCCCCC)C1=O)C2=CC=C(C3=C4C=CC1C32)C5=C(C6=CC=C([Ge](C7=CC=C(C8=C(C9=CC=C(C%10=O)C%11C9=C%12C=CC%11C(N%10C(CCCCCC)CCCCCC)=O)C(C%12=CC=C%13C(N(C(CCCCCC)CCCCCC)C%14=O)=O)=C%13C%14=C8)C=C7)(C%15=CC=C(C%16=C(C%17=C%18C=CC%19C%17C(C(N(C(CCCCCC)CCCCCC)C%19=O)=O)=C%16)C%20=CC=C%21C%22=C%20C%18=CC=C%22C(N(C(CCCCCC)CCCCCC)C%21=O)=O)C=C%15)C%23=CC=C(C%24=C(C%25=C%26C=CC%27C%25C(C(N(C(CCCCCC)CCCCCC)C%27=O)=O)=C%24)C%28=CC=C%29C%30=C%28C%26=CC=C%30C(N(C(CCCCCC)CCCCCC)C%29=O)=O)C=C%23)C=C6)C=C%31C%32=C5C4=CC=C%32C(N(C(CCCCCC)CCCCCC)C%31=O)=O,3401.28,PffBT4T-2DT,5.24,3.59,1.65,CC1=C(C=C(S1)C2=C(C(F)=C(C3=NSN=C32)C4=CC(CC(CCCCCCCCCC)CCCCCCCCCCCC)=C(S4)C5=CC=C(S5)C6=CC=C(S6)C)F)CC(CCCCCCCCCCCC)CCCCCCCCCC,254,131,1.938931298,1,1.5,CB,NA,100,,,J. Mater. Chem. A,10.1039/c5ta03093e
394,180,2015,4.26,4.19,10.1,0.551,0.766,IDT-2BM,5.6,3.8,1.8,CCCCCCC(C=C1)=CC=C1C2(C3=CC=C(CCCCCC)C=C3)C4=CC5=C(C(C6=C5SC(C7=CC=C(/C=C(C#N)/C#N)C8=NSN=C87)=C6)(C9=CC=C(CCCCCC)C=C9)C%10=CC=C(CCCCCC)C=C%10)C=C4C%11=C2C=C(C%12=CC=C(/C=C(C#N)/C#N)C%13=NSN=C%13%12)S%11,1327.84,PBDTTT-C-T,5.11,3.25,1.86,O=C(C1=CC2=C(SC(C3=CC4=C(S3)C(C5=CC=C(S5)CC(CCCC)CC)=C6C=C(SC6=C4C7=CC=C(S7)CC(CCCC)CC)C)=C2S1)C)CC(CC)CCCC,56,20,2.8,1,0.67,DCB,CN,NA,,,J. Mater. Chem. A,10.1039/c5ta05901a
395,180,2015,4.81,4.7,9.87,0.572,0.851,IDTT-2BM,5.5,3.8,1.7,CCCCCCC(C=C1)=CC=C1C2(C3=CC=C(CCCCCC)C=C3)C4=CC5=C(C(C6=C5SC7=C6SC(C8=CC=C(/C=C(C#N)/C#N)C9=NSN=C98)=C7)(C%10=CC=C(CCCCCC)C=C%10)C%11=CC=C(CCCCCC)C=C%11)C=C4C%12=C2C(SC(C%13=CC=C(/C=C(C#N)/C#N)C%14=NSN=C%14%13)=C%15)=C%15S%12,1440.01,PBDTTT-C-T,5.11,3.25,1.86,O=C(C1=CC2=C(SC(C3=CC4=C(S3)C(C5=CC=C(S5)CC(CCCC)CC)=C6C=C(SC6=C4C7=CC=C(S7)CC(CCCC)CC)C)=C2S1)C)CC(CC)CCCC,56,20,2.8,1,0.67,CF/DCB,CN,NA,,,J. Mater. Chem. A,10.1039/c5ta05901a
396,181,2017,2.48,2.35,4.88,0.602,0.8,PDI1,6.08,3.8,2.28,O=C(N(C(CCCCC)CCCCC)C1=O)C2=CCC(C3=C4C=CC1=C32)=C5CC=C6C7=C5C4=CC=C7C(N(C(CCCCC)CCCCC)C6=O)=O,700.96,PTB7-Th,5.22,3.64,1.58,O=C(OCC(CC)CCCC)C1=C(F)C2=C(C)SC(C3=CC4=C(C(C5=CC=C(CC(CC)CCCC)S5)=C(C=C(C)S6)C6=C4C7=CC=C(CC(CC)CCCC)S7)S3)=C2S1,124,72.9,1.7,1,1,CB,DIO,NA,,,J. Mater. Chem. A,10.1039/c6ta08870h
397,181,2017,5.32,5.27,13.01,0.533,0.76,PDI2,6.09,3.88,2.21,O=C(N(C(CCCCC)CCCCC)C1=O)C2=CC(C(C=C3C(N(C(CCCCC)CCCCC)C4=O)=O)=C5C6=C3C4=CCC6=C7C8=C5C=CC9=C8C(C(N(C(CCCCC)CCCCC)C9=O)=O)=CC7)C(C%10=C%11C=CC1=C%102)=C%12CC=C%13C%14=C%12C%11=CC=C%14C(N(C(CCCCC)CCCCC)C%13=O)=O,1399.91,PTB7-Th,5.22,3.64,1.58,O=C(OCC(CC)CCCC)C1=C(F)C2=C(C)SC(C3=CC4=C(C(C5=CC=C(CC(CC)CCCC)S5)=C(C=C(C)S6)C6=C4C7=CC=C(CC(CC)CCCC)S7)S3)=C2S1,124,72.9,1.7,1,1,CB,DIO,NA,,,J. Mater. Chem. A,10.1039/c6ta08870h
398,181,2017,6.44,6.32,13.36,0.536,0.9,PDI4,5.97,3.78,2.19,O=C(N(C(CCCCC)CCCCC)C1=O)C2=CC(C3=CC(C(C4=C5C=CC(C6C(C7=C8C=CC9=C7C(C(N(C(CCCCC)CCCCC)C9=O)=O)=C6)=C%10CC=C%11C%12=C%10C8=CC=C%12C(N(C(CCCCC)CCCCC)C%11=O)=O)=C4)(C%13=C5C=CC(C%14=CC%15=C%16C%17=C%14C%18=CC=C(C(N(C(CCCCC)CCCCC)C%19=O)=O)C(C%19=CC%20)=C%18C%20=C%17CC=C%16C(N(C(CCCCC)CCCCC)C%15=O)=O)=C%13)C%21=C%22C=CC(C%23=CC%24=C%25C%26=C%23C%27=CC=C(C(N(C(CCCCC)CCCCC)C%28=O)=O)C(C%28=CC%29)=C%27C%29=C%26CC=C%25C(N(C(CCCCC)CCCCC)C%24=O)=O)=C%21)=C%22C=C3)C(C%30=C%31C=CC1=C%302)=C%32CC=C%33C%34=C%32C%31=CC=C%34C(N(C(CCCCC)CCCCC)C%33=O)=O,3112.2,PTB7-Th,5.22,3.64,1.58,O=C(OCC(CC)CCCC)C1=C(F)C2=C(C)SC(C3=CC4=C(C(C5=CC=C(CC(CC)CCCC)S5)=C(C=C(C)S6)C6=C4C7=CC=C(CC(CC)CCCC)S7)S3)=C2S1,124,72.9,1.7,1,1,CB,DIO,NA,,,J. Mater. Chem. A,10.1039/c6ta08870h
399,182,2017,4.86,4.72,10.56,0.49,0.94,DPP7,5.52,3.83,1.69,O=C(C1=C(C2=CC=C(C(/C(C3=CC=C(N(C4=C5C=CC=C4)C6=C5C=CC=C6)C=C3)=C(C#N)\C#N)=C(C#N)/C#N)S2)N7CCCCCCCCCC)N(CCCCCCCCCC)C(C8=CC=CS8)=C1C7=O,974.3,PCPDT-FATZ,5.4,3.4,2,CC1=CC(F)=C(C2=CC3=C(C(SC(C)=C4)=C4[Si]3(CCCCCCCC)CCCCCCCC)S2)C5=NN(CCCCCC)N=C15,41.808,20.8,2.01,1,2,CF,NA,NA,,,J. Mater. Chem. A,10.1039/c6ta09607g
400,182,2017,7.19,7.09,13.78,0.58,0.9,DPP8,5.33,3.81,1.52,O=C(C1=C(C2=CC=C(C(/C(C3=CC=C(N(C4=C5C=CC=C4)C6=C5C=CC=C6)C=C3)=C(C#N)\C#N)=C(C#N)/C#N)S2)N7CCCCCCCCCC)N(CCCCCCCCCC)C(C8=CC=C(C#CC9=CC=C(N%10C(C=CC=C%11)=C%11C%12=C%10C=CC=C%12)C=C9)S8)=C1C7=O,1239.61,PCPDT-FATZ,5.4,3.4,2,CC1=CC(F)=C(C2=CC3=C(C(SC(C)=C4)=C4[Si]3(CCCCCCCC)CCCCCCCC)S2)C5=NN(CCCCCC)N=C15,41.808,20.8,2.01,1,2,CF,NA,NA,,,J. Mater. Chem. A,10.1039/c6ta09607g
401,183,2017,2.3,2.3,6.7,0.367,0.935,SF-PDI2,5.9,3.83,2.07,O=C(N(C(CCCCC)CCCCC)C1=O)C2=CC=C(C3=C4C=CC1C32)C5=C(C6=CC7=C(C8C(C7(C9C%10C=CC=C9)C%11=C%10C=CC=C%11)C=C(C%12=C(C%13=C%14C=CC%15C%13C(C(N(C(CCCCC)CCCCC)C%15=O)=O)=C%12)C%16=CC=C%17C%18=C%16C%14=CC=C%18C(N(C(CCCCC)CCCCC)C%17=O)=O)C=C8)C=C6)C=C%19C%20=C5C4=CC=C%20C(N(C(CCCCC)CCCCC)C%19=O)=O,1718.33,FTAZ,5.45,3.45,2,CC1=CC2=C(S1)C(CCC(CCCC)CCCCCC)=C3C=C(SC3=C2CCC(CCCC)CCCCCC)C4=CC=C(S4)C5=C(C(F)=C(C6=NN(N=C65)CC(CCCC)CCCCCC)C7=CC=C(S7)C)F,99.592,42.2,2.36,1,2,TCB,NA,NA,,,J. Mater. Chem. A,10.1039/c6ta10450a
402,183,2017,4.37,4.37,8.15,0.465,1.152,SF-PDI2,5.9,3.83,2.07,O=C(N(C(CCCCC)CCCCC)C1=O)C2=CC=C(C3=C4C=CC1C32)C5=C(C6=CC7=C(C8C(C7(C9C%10C=CC=C9)C%11=C%10C=CC=C%11)C=C(C%12=C(C%13=C%14C=CC%15C%13C(C(N(C(CCCCC)CCCCC)C%15=O)=O)=C%12)C%16=CC=C%17C%18=C%16C%14=CC=C%18C(N(C(CCCCC)CCCCC)C%17=O)=O)C=C8)C=C6)C=C%19C%20=C5C4=CC=C%20C(N(C(CCCCC)CCCCC)C%19=O)=O,1718.33,PyCNTAZ,5.67,3.83,1.84,CC1=CC2=C(C(CCC(CCCCCC)CCCC)=C3C=C(C4=CC=C(C5=C(C#N)N=C(C6=CC=C(C)S6)C7=NN(CC(CCCCCC)CCCC)N=C75)S4)SC3=C2CCC(CCCCCC)CCCC)S1,100,50,2,1,2,TCB,NA,NA,,,J. Mater. Chem. A,10.1039/c6ta10450a
403,184,2017,6,5.74,11.23,0.56,0.95,DTCC–IC,5.5,3.87,1.63,O=C(C(C=CC=C1)=C1C/2=C(C#N)/C#N)C2=C/C(S3)=CC4=C3C5=C(C(C6=CC=C(OCCCCCCCC)C=C6)4C7=CC=CC(OCCCCCCCC)=C7)C=C8C(N(CCCCCCCC)C9=C8C=C%10C(C(SC(/C=C%11C(C(C=CC=C%12)=C%12C\%11=C(C#N)\C#N)=O)=C%13)=C%13C%10(C%14=CC=C(OCCCCCCCC)C=C%14)C%15=CC=C(OCCCCCCCC)C=C%15)=C9)=C5,1693.32,PTB7-Th,5.2,3.56,1.64,O=C(OCC(CC)CCCC)C1=C(F)C2=C(C)SC(C3=CC4=C(C(C5=CC=C(CC(CC)CCCC)S5)=C(C=C(C)S6)C6=C4C7=CC=C(CC(CC)CCCC)S7)S3)=C2S1,124,72.9,1.7,1,1,CF,CN,NA,,,J. Mater. Chem. A,10.1039/c7ta01143a
404,185,2017,10.45,10.31,16.69,0.6773,0.92,FTIC-C8C6,5.62,3.99,1.63,O=C(C(C=CC=C1)=C1C/2=C(C#N)/C#N)C2=C/C(S3)=CC4=C3C5=C(C4(CCCCCC)CCCCCC)C=C6C(C(CCCCCCCC)(CCCCCCCC)C7=C6C=C8C(C(SC(/C=C9C(C(C=CC=C%10)=C%10C\9=C(C#N)\C#N)=O)=C%11)=C%11C8(CCCCCC)CCCCCC)=C7)=C5,1323.94,PBDB-T,5.23,3.42,1.81,CC(SC1=C2C3=CC=C(CC(CC)CCCC)S3)=CC1=C(C4=CC=C(CC(CC)CCCC)S4)C5=C2C=C(S5)C6=CC=C(C7=C8C(C(C9=C(CC(CC)CCCC)SC(CC(CC)CCCC)=C9C8=O)=O)=C(C%10=CC=C(C)S%10)S7)S6,117,58.5,2,1,1,DCB,DIO,NA,,,J. Mater. Chem. A,10.1039/c7ta02141k
405,185,2017,9.75,9.63,16.84,0.6344,0.91,FTIC-C6C6,5.6,3.97,1.63,O=C(C(C=CC=C1)=C1C/2=C(C#N)/C#N)C2=C/C(S3)=CC4=C3C5=C(C4(CCCCCC)CCCCCC)C=C6C(C(CCCCCC)(CCCCCC)C7=C6C=C8C(C(SC(/C=C9C(C(C=CC=C%10)=C%10C\9=C(C#N)\C#N)=O)=C%11)=C%11C8(CCCCCC)CCCCCC)=C7)=C5,1267.83,PBDB-T,5.23,3.42,1.81,CC(SC1=C2C3=CC=C(CC(CC)CCCC)S3)=CC1=C(C4=CC=C(CC(CC)CCCC)S4)C5=C2C=C(S5)C6=CC=C(C7=C8C(C(C9=C(CC(CC)CCCC)SC(CC(CC)CCCC)=C9C8=O)=O)=C(C%10=CC=C(C)S%10)S7)S6,117,58.5,2,1,1,DCB,DIO,NA,,,J. Mater. Chem. A,10.1039/c7ta02141k
406,185,2017,11.12,11.04,18.55,0.6472,0.93,FTIC-C6C8,5.64,4.02,1.62,O=C(C(C=CC=C1)=C1C/2=C(C#N)/C#N)C2=C/C(S3)=CC4=C3C5=C(C4(CCCCCCCC)CCCCCCCC)C=C6C(C(CCCCCC)(CCCCCC)C7=C6C=C8C(C(SC(/C=C9C(C(C=CC=C%10)=C%10C\9=C(C#N)\C#N)=O)=C%11)=C%11C8(CCCCCCCC)CCCCCCCC)=C7)=C5,1380.05,PBDB-T,5.23,3.42,1.81,CC(SC1=C2C3=CC=C(CC(CC)CCCC)S3)=CC1=C(C4=CC=C(CC(CC)CCCC)S4)C5=C2C=C(S5)C6=CC=C(C7=C8C(C(C9=C(CC(CC)CCCC)SC(CC(CC)CCCC)=C9C8=O)=O)=C(C%10=CC=C(C)S%10)S7)S6,117,58.5,2,1,1,DCB,DIO,NA,,,J. Mater. Chem. A,10.1039/c7ta02141k
407,186,2017,10.5,10,19,0.62,0.89,ITIC,5.6,3.85,1.75,CCCCCCC(C=C1)=CC=C1C2(C3=CC=C(CCCCCC)C=C3)C4=CC5=C(C(C6=C5SC7=C6SC(/C=C8C(C(C=CC=C9)=C9C\8=C(C#N)\C#N)=O)=C7)(C%10=CC=C(CCCCCC)C=C%10)C%11=CC=C(CCCCCC)C=C%11)C=C4C%12=C2C(SC(/C=C%13C(C(C=CC=C%14)=C%14C\%13=C(C#N)/C#N)=O)=C%15)=C%15S%12,1427.96,PSBZ,5.37,3.47,1.9,CC1=CC(C(S1)=C2C3=CC=C(SCC(CCCC)CCCCCC)S3)=C(C4=C2C=C(C5=CC=C(C6=C(F)C(F)=C(C7=CC=C(C)S7)C8=NN(CC(CCCC)CCCCCC)N=C68)S5)S4)C9=CC=C(SCC(CCCC)CCCCCC)S9,69.54,30.5,2.28,1,1,CB,NA,140,,,J. Mater. Chem. A,10.1039/c7ta02075a
408,187,2017,9.05,8.93,16.11,0.64,0.87,ITIC,5.55,4,1.55,CCCCCCC(C=C1)=CC=C1C2(C3=CC=C(CCCCCC)C=C3)C4=CC5=C(C(C6=C5SC7=C6SC(/C=C8C(C(C=CC=C9)=C9C\8=C(C#N)\C#N)=O)=C7)(C%10=CC=C(CCCCCC)C=C%10)C%11=CC=C(CCCCCC)C=C%11)C=C4C%12=C2C(SC(/C=C%13C(C(C=CC=C%14)=C%14C\%13=C(C#N)/C#N)=O)=C%15)=C%15S%12,1427.96,PBDB-T1,5.26,3.46,1.8,CC(SC1=C2C3=CC=C(CC(CC)CCCC)S3)=CC1=C(C4=CC=C(CC(CC)CCCC)S4)C5=C2C=C(S5)C6=CC=C(C7=C8C(C(C9=C(CCCCCCCC)SC(CCCCCCCC)=C9C8=O)=O)=C(C%10=CC=C(C)S%10)S7)S6,169.32,66.4,2.55,1,1.2,DCB,NA,NA,90,,J. Mater. Chem. A,10.1039/c7ta01554b
409,187,2017,9.12,8.99,15.93,0.62,0.92,ITTIC,5.28,3.82,1.46,CCCCCCC(C=C1)=CC=C1C2(C3=CC=C(CCCCCC)C=C3)C4=CC5=C(C(C6=C5SC7=C6SC(C8=CC=C(/C=C9C(C(C=CC=C%10)=C%10C\9=C(C#N)\C#N)=O)S8)=C7)(C%11=CC=C(CCCCCC)C=C%11)C%12=CC=C(CCCCCC)C=C%12)C=C4C%13=C2C(SC(C%14=CC=C(/C=C%15C(C(C=CC=C%16)=C%16C\%15=C(C#N)/C#N)=O)S%14)=C%17)=C%17S%13,1592.2,PBDB-T1,5.26,3.46,1.8,CC(SC1=C2C3=CC=C(CC(CC)CCCC)S3)=CC1=C(C4=CC=C(CC(CC)CCCC)S4)C5=C2C=C(S5)C6=CC=C(C7=C8C(C(C9=C(CCCCCCCC)SC(CCCCCCCC)=C9C8=O)=O)=C(C%10=CC=C(C)S%10)S7)S6,169.32,66.4,2.55,1,1.2,DCB,NA,110,90,,J. Mater. Chem. A,10.1039/c7ta01554b
410,188,2017,4.89,4.81,10.53,0.56,0.83,PY-1,5.27,3.87,1.4,CCCCCCCCC(CCCCCCCC)N1C2=C(SC(C(S3)=C(CCCCC)C=C3C(SC(/C=C4C(N(C(C([N+]#[C-])=C\4C)=O)CCCC)=O)=C5)=C5CCCCCC)=C2)C6=C1C=C(C7=C(CCCCCC)C=C(C8=C(CCCCCC)C=C(/C=C9C(C)=C([N+]#[C-])C(N(CCCC)C/9=O)=O)S8)S7)S6,1501.3,P1,5.1,3.48,1.62,CC(SC1=C2OCCCCCCCCCCCC)=CC1=C(OCCCCCCCCCCCC)C3=C2C=C(S3)C4=CC=C(C5=CC=C(C6=CC=C(C)S6)C7=NSN=C57)S4,18.1,12.2,1.48,1,2,CF,DIO,NA,,,J. Mater. Chem. A,10.1039/c7ta04703g
411,188,2017,6.94,6.87,13.77,0.63,0.8,DCI-2,5.24,4.01,1.23,CCCCCCCCC(CCCCCCCC)N1C2=C(SC(C(S3)=C(CCCCC)C=C3C(SC(/C=C4/C(C(C=CC=C5)=C5C4=O)=C(C#N)\C#N)=C6)=C6CCCCCC)=C2)C7=C1C=C(C8=C(CCCCCC)C=C(C9=C(CCCCCC)C=C(/C=C%10/C(C(C=CC=C%11)=C%11C%10=O)=C(C#N)\C#N)S9)S8)S7,1477.19,P1,5.1,3.48,1.62,CC(SC1=C2OCCCCCCCCCCCC)=CC1=C(OCCCCCCCCCCCC)C3=C2C=C(S3)C4=CC=C(C5=CC=C(C6=CC=C(C)S6)C7=NSN=C57)S4,18.1,12.2,1.48,1,2,CF,DIO,NA,,,J. Mater. Chem. A,10.1039/c7ta04703g
412,189,2017,6.26,6.11,10.93,0.62,0.927,ATT3,5.32,3.4,1.92,S=C(S/1)N(CC)C(C1=C\C(S2)=C(SC(C(OCCCCCCCC)=O)=C3)C3=C2C(S4)=CC5=C4C6=CC(C(C7=CC=C(CCCCCC)C=C7)(C8=CC=C(CCCCCC)C=C8)C9=C%10SC(C%11=C%12C(SC(C(OCCCCCCCC)=O)=C%12)=C(/C=C%13SC(N(C\%13=O)CC)=S)S%11)=C9)=C%10C=C6C5(C%14=CC=C(CCCCCC)C=C%14)C%15=CC=C(CCCCCC)C=C%15)=O,1838.73,P3HT,5,3.1,1.9,CC1=CC(CCCCCC)=C(C)S1,21.1,11.6,1.82,1,0.8,CF,NA,130,70,,J. Mater. Chem. A,10.1039/c7ta05108e
413,190,2017,8.63,8.5,13.55,0.681,0.935,NTIC,5.58,3.76,1.82,CCCCCCC(C=C1)=CC=C1C(C2=C3SC4=C2SC(/C=C5C(C(C=CC=C6)=C6C\5=C(C#N)\C#N)=O)=C4)(C7=CC=C(CCCCCC)C=C7)C8=C3C=CC9=C8C=CC%10=C9C(C%11=C%10SC%12=C%11SC(/C=C%13C(C(C=CC=C%14)=C%14C\%13=C(C#N)\C#N)=O)=C%12)(C%15=CC=C(CCCCCC)C=C%15)C%16=CC=C(CCCCCC)C=C%16,1478.02,PBDB-T,5.33,2.92,2.41,CC(SC1=C2C3=CC=C(CC(CC)CCCC)S3)=CC1=C(C4=CC=C(CC(CC)CCCC)S4)C5=C2C=C(S5)C6=CC=C(C7=C8C(C(C9=C(CC(CC)CCCC)SC(CC(CC)CCCC)=C9C8=O)=O)=C(C%10=CC=C(C)S%10)S7)S6,117,58.5,2,1,0.8,CF,NA,NA,,,J. Mater. Chem. A,10.1039/c7ta05809h
414,190,2017,8.3,8.12,13.03,0.662,0.963,NTIC-Me,5.53,3.73,1.8,CCCCCCC(C=C1)=CC=C1C(C2=C3SC4=C2SC(/C=C5C(C(C=CC(C)=C6)=C6C\5=C(C#N)\C#N)=O)=C4)(C7=CC=C(CCCCCC)C=C7)C8=C3C=CC9=C8C=CC%10=C9C(C%11=C%10SC%12=C%11SC(/C=C%13C(C(C=CC(C)=C%14)=C%14C\%13=C(C#N)\C#N)=O)=C%12)(C%15=CC=C(CCCCCC)C=C%15)C%16=CC=C(CCCCCC)C=C%16,1506.07,PBDB-T,5.33,2.92,2.41,CC(SC1=C2C3=CC=C(CC(CC)CCCC)S3)=CC1=C(C4=CC=C(CC(CC)CCCC)S4)C5=C2C=C(S5)C6=CC=C(C7=C8C(C(C9=C(CC(CC)CCCC)SC(CC(CC)CCCC)=C9C8=O)=O)=C(C%10=CC=C(C)S%10)S7)S6,117,58.5,2,1,0.8,CF,NA,NA,,,J. Mater. Chem. A,10.1039/c7ta05809h
415,190,2017,8.61,8.47,13.52,0.66,0.965,NTIC-Ome,5.53,3.7,1.83,CCCCCCC(C=C1)=CC=C1C(C2=C3SC4=C2SC(/C=C5C(C(C=CC(OC)=C6)=C6C\5=C(C#N)\C#N)=O)=C4)(C7=CC=C(CCCCCC)C=C7)C8=C3C=CC9=C8C=CC%10=C9C(C%11=C%10SC%12=C%11SC(/C=C%13C(C(C=CC(OC)=C%14)=C%14C\%13=C(C#N)\C#N)=O)=C%12)(C%15=CC=C(CCCCCC)C=C%15)C%16=CC=C(CCCCCC)C=C%16,1538.07,PBDB-T,5.33,2.92,2.41,CC(SC1=C2C3=CC=C(CC(CC)CCCC)S3)=CC1=C(C4=CC=C(CC(CC)CCCC)S4)C5=C2C=C(S5)C6=CC=C(C7=C8C(C(C9=C(CC(CC)CCCC)SC(CC(CC)CCCC)=C9C8=O)=O)=C(C%10=CC=C(C)S%10)S7)S6,117,58.5,2,1,0.8,CF,NA,NA,,,J. Mater. Chem. A,10.1039/c7ta05809h