ID,Ref,year,PCE_max(%),PCE_ave(%),Jsc(mA/cm2),FF,Voc(V),Nickname(n),-HOMO_n(eV),-LUMO_n(eV),Eg_n(eV),n(SMILES),M (g/mol),Nickname(p),-HOMO_p(eV),-LUMO_p(eV),Eg_p(eV),p(SMILES),Mw (kg/mol),Mn(kg/mol),PDI,p/n ratio (p),p/n ratio (n),Solvent,Additive,TA (oC),thick (nm),,Journal,DOI
675,301,2019,13.1,12.8,21.8,0.732,0.82,INPIC-4F,5.42,3.94,1.48,CCCCCCC(C=C1)=CC=C1C2(C3=CC=C(CCCCCC)C=C3)C4=CC5=C(C(C6=C5SC7=C6N(CCCCCCCC)C8=C7SC(/C=C9C(C(C=C(F)C(F)=C%10)=C%10C\9=C(C#N)\C#N)=O)=C8)(C%11=CC=C(CCCCCC)C=C%11)C%12=CC=C(CCCCCC)C=C%12)C=C4C%13=C2C(N(CCCCCCCC)C%14=C%15SC(/C=C%16C(C(C=C(F)C(F)=C%17)=C%17C\%16=C(C#N)/C#N)=O)=C%14)=C%15S%13,1802.42,PBDB-T,5.21,3.41,1.8,CC(SC1=C2C3=CC=C(CC(CC)CCCC)S3)=CC1=C(C4=CC=C(CC(CC)CCCC)S4)C5=C2C=C(S5)C6=CC=C(C7=C8C(C(C9=C(CC(CC)CCCC)SC(CC(CC)CCCC)=C9C8=O)=O)=C(C%10=CC=C(C)S%10)S7)S6,117,58.5,2,1,1,CB,DIO,100,100,,,
676,302,2019,1.33,1.3,7.41,0.363,0.741,IT-4F,5.7,4.2,1.5,CCCCCCC(C=C1)=CC=C1C2(C3=CC=C(CCCCCC)C=C3)C4=CC5=C(C(C6=C5SC7=C6SC(/C=C8C(C(C=C(F)C(F)=C9)=C9C\8=C(C#N)\C#N)=O)=C7)(C%10=CC=C(CCCCCC)C=C%10)C%11=CC=C(CCCCCC)C=C%11)C=C4C%12=C2C(SC(/C=C%13C(C(C=C(F)C(F)=C%14)=C%14C\%13=C(C#N)/C#N)=O)=C%15)=C%15S%12,1499.92,L24,5.43,3.48,1.95,CC(S1)=CC=C1C(C2=NN(CC(CC)CCCC)N=C23)=C(F)C(F)=C3C4=CC=C(C5=CC6=C(C(C7=CC(Cl)=C(CC(CC)CCCC)S7)=C8C=C(SC8=C6C9=CC(Cl)=C(CC(CC)CCCC)S9)C)S5)S4,9.57,7.15,1.338461538,1,1,CF,DIO,100,,,,
677,302,2019,9.3,9.1,19.5,0.632,0.758,IT-4F,5.7,4.2,1.5,CCCCCCC(C=C1)=CC=C1C2(C3=CC=C(CCCCCC)C=C3)C4=CC5=C(C(C6=C5SC7=C6SC(/C=C8C(C(C=C(F)C(F)=C9)=C9C\8=C(C#N)\C#N)=O)=C7)(C%10=CC=C(CCCCCC)C=C%10)C%11=CC=C(CCCCCC)C=C%11)C=C4C%12=C2C(SC(/C=C%13C(C(C=C(F)C(F)=C%14)=C%14C\%13=C(C#N)/C#N)=O)=C%15)=C%15S%12,1499.92,L68,5.51,3.56,1.95,CC(S1)=CC=C1C(C2=NN(CC(CCCCCC)CCCCCCCC)N=C23)=C(F)C(F)=C3C4=CC=C(C5=CC6=C(C(C7=CC(Cl)=C(CC(CC)CCCC)S7)=C8C=C(SC8=C6C9=CC(Cl)=C(CC(CC)CCCC)S9)C)S5)S4,57.11,28,2.039642857,1,1,CF,DIO,100,,,,
678,302,2019,12.1,11.7,20.76,0.735,0.79,IT-4F,5.7,4.2,1.5,CCCCCCC(C=C1)=CC=C1C2(C3=CC=C(CCCCCC)C=C3)C4=CC5=C(C(C6=C5SC7=C6SC(/C=C8C(C(C=C(F)C(F)=C9)=C9C\8=C(C#N)\C#N)=O)=C7)(C%10=CC=C(CCCCCC)C=C%10)C%11=CC=C(CCCCCC)C=C%11)C=C4C%12=C2C(SC(/C=C%13C(C(C=C(F)C(F)=C%14)=C%14C\%13=C(C#N)/C#N)=O)=C%15)=C%15S%12,1499.92,L810,5.57,3.58,1.99,CC(S1)=CC=C1C(C2=NN(CC(CCCCCCCCCC)CCCCCCCC)N=C23)=C(F)C(F)=C3C4=CC=C(C5=CC6=C(C(C7=CC(Cl)=C(CC(CC)CCCC)S7)=C8C=C(SC8=C6C9=CC(Cl)=C(CC(CC)CCCC)S9)C)S5)S4,254.34,124.5,2.042891566,1,1,CF,DIO,100,,,,
679,303,2019,7.82,7.49,13.56,0.663,0.87,Alq3-PDI,5.9,3.76,2.14,O=C(N(C(CCCC)CCCC)C1=O)C2=CC=C3C4=C(C5=CC=C(C(N(C(CCCC)CCCC)C6=O)=O)C7=C6C=CC3=C57)C(C8=C9C([N+]%10=CC=C9)=C(O[Al-3]%11%12([N+]%13=CC=CC%14=C(C%15=CC%16=C%17C(C%18=CC=C%17C(N(C(CCCC)CCCC)C%16=O)=O)=C%15C%19=CC=C(C(N(C(CCCC)CCCC)C%20=O)=O)C%21=C%20C=CC%18=C%19%21)C=CC(O%12)=C%14%13)%10OC%22=C([N+]%11=CC=C%23)C%23=C(C%24=CC%25=C%26C%27=C%24C%28=CC=C(C(N(C(CCCC)CCCC)C%29=O)=O)C%30=C%29C=CC(C%27=CC=C%26C(N(C(CCCC)CCCC)C%25=O)=O)=C%30%28)C=C%22)C=C8)=CC1=C42,2381.91,PTTEA,5.4,3.54,1.86,FC(C(F)=C(C1=CC(C(OCC(CCCCCCCCCC)CCCCCCCC)=O)=C(C2=CC(CC(CCCCCCCC)CCCCCC)=C(C3=CC=C(C4=C(F)C(F)=C(C5=CC=C(C)S5)C6=NSN=C64)S3)S2)S1)C7=NSN=C78)=C8C9=CC(C(OCC(CCCCCCCCCC)CCCCCCCC)=O)=C(C%10=CC(CC(CCCCCCCC)CCCCCC)=C(C)S%10)S9,99.704,48.4,2.06,1,1.5,CF,Bipy,NA,100,,,
680,303,2019,6.33,6.12,12.34,0.597,0.86,Alq3-PDI2,5.98,3.88,2.1,O=C(N(C(CCCC)CCCC)C1=O)C2=CC=C3C4=C2C1=CC(C5=C6C7=C(C8=C5C=C(C(N9C(CCCC)CCCC)=O)C%10=C8C(C%11=CC=C%12C(N(C(CCCC)CCCC)C%13=O)=O)=CC=C%10C9=O)C%11=C%12C%13=C7)=C4C%14=C6C=C(C(N%15C(CCCC)CCCC)=O)C%16=C%14C3=C(C%17=C%18C([N+]%19=CC=C%18)=C(O[Al-3]%19%20%21([N+]%22=CC=CC%23=C(C%24=C(C%25=CC=C(C(N%26C(CCCC)CCCC)=O)C%27=C%25C%28=C%29C=C%27C%26=O)C(C%28=C(C%30=C%29C(C=C%31C(N(C(CCCC)CCCC)C%32=O)=O)=C(C%33=C%31C%32=CC=C%33%34)C%35=C%30C=C%36C%37=C%35C%34=CC=C%37C(N(C(CCCC)CCCC)C%36=O)=O)C=C%38C(N(C(CCCC)CCCC)C%39=O)=O)=C%38C%39=C%24)C=CC(O%21)=C%23%22)OC%40=C([N+]%20=CC=C%41)C%41=C(C%42=C(C%43=CC=C(C(N%44C(CCCC)CCCC)=O)C%45=C%43C%46=C%47C=C%45C%44=O)C(C%46=C(C%48=C%47C(C=C%49C(N(C(CCCC)CCCC)C%50=O)=O)=C(C%51=C%49C%50=CC=C%51%52)C%53=C%48C=C%54C%55=C%53C%52=CC=C%55C(N(C(CCCC)CCCC)C%54=O)=O)C=C%56C(N(C(CCCC)CCCC)C%57=O)=O)=C%56C%57=C%42)C=C%40)C=C%17)C=C%16C%15=O,4370.4,PTTEA,5.4,3.54,1.86,FC(C(F)=C(C1=CC(C(OCC(CCCCCCCCCC)CCCCCCCC)=O)=C(C2=CC(CC(CCCCCCCC)CCCCCC)=C(C3=CC=C(C4=C(F)C(F)=C(C5=CC=C(C)S5)C6=NSN=C64)S3)S2)S1)C7=NSN=C78)=C8C9=CC(C(OCC(CCCCCCCCCC)CCCCCCCC)=O)=C(C%10=CC(CC(CCCCCCCC)CCCCCC)=C(C)S%10)S9,99.704,48.4,2.06,1,1.5,CF,NA,NA,100,,,
681,303,2019,9.54,9.26,15.74,0.713,0.85,Alq3-PDI2,5.98,3.88,2.1,O=C(N(C(CCCC)CCCC)C1=O)C2=CC=C3C4=C2C1=CC(C5=C6C7=C(C8=C5C=C(C(N9C(CCCC)CCCC)=O)C%10=C8C(C%11=CC=C%12C(N(C(CCCC)CCCC)C%13=O)=O)=CC=C%10C9=O)C%11=C%12C%13=C7)=C4C%14=C6C=C(C(N%15C(CCCC)CCCC)=O)C%16=C%14C3=C(C%17=C%18C([N+]%19=CC=C%18)=C(O[Al-3]%19%20%21([N+]%22=CC=CC%23=C(C%24=C(C%25=CC=C(C(N%26C(CCCC)CCCC)=O)C%27=C%25C%28=C%29C=C%27C%26=O)C(C%28=C(C%30=C%29C(C=C%31C(N(C(CCCC)CCCC)C%32=O)=O)=C(C%33=C%31C%32=CC=C%33%34)C%35=C%30C=C%36C%37=C%35C%34=CC=C%37C(N(C(CCCC)CCCC)C%36=O)=O)C=C%38C(N(C(CCCC)CCCC)C%39=O)=O)=C%38C%39=C%24)C=CC(O%21)=C%23%22)OC%40=C([N+]%20=CC=C%41)C%41=C(C%42=C(C%43=CC=C(C(N%44C(CCCC)CCCC)=O)C%45=C%43C%46=C%47C=C%45C%44=O)C(C%46=C(C%48=C%47C(C=C%49C(N(C(CCCC)CCCC)C%50=O)=O)=C(C%51=C%49C%50=CC=C%51%52)C%53=C%48C=C%54C%55=C%53C%52=CC=C%55C(N(C(CCCC)CCCC)C%54=O)=O)C=C%56C(N(C(CCCC)CCCC)C%57=O)=O)=C%56C%57=C%42)C=C%40)C=C%17)C=C%16C%15=O,4370.4,PTTEA,5.4,3.54,1.86,FC(C(F)=C(C1=CC(C(OCC(CCCCCCCCCC)CCCCCCCC)=O)=C(C2=CC(CC(CCCCCCCC)CCCCCC)=C(C3=CC=C(C4=C(F)C(F)=C(C5=CC=C(C)S5)C6=NSN=C64)S3)S2)S1)C7=NSN=C78)=C8C9=CC(C(OCC(CCCCCCCCCC)CCCCCCCC)=O)=C(C%10=CC(CC(CCCCCCCC)CCCCCC)=C(C)S%10)S9,99.704,48.4,2.06,1,1.5,CF,Bipy,NA,100,,,
682,304,2018,10.4,10,16.6,0.71,0.85,IDIC,5.51,3.91,1.6,O=C(C(C=CC=C1)=C1C/2=C(C#N)\C#N)C2=C/C(S3)=CC4=C3C5=C(C4(CCCCCC)CCCCCC)C=C6C(C(CCCCCC)(CCCCCC)C7=C6SC(/C=C8C(C(C=CC=C9)=C9C\8=C(C#N)/C#N)=O)=C7)=C5,1011.4,FTAZ,5.35,3.35,2,CC1=CC2=C(S1)C(CCC(CCCC)CCCCCC)=C3C=C(SC3=C2CCC(CCCC)CCCCCC)C4=CC=C(S4)C5=C(C(F)=C(C6=NN(N=C65)CC(CCCC)CCCCCC)C7=CC=C(S7)C)F,99.592,42.2,2.36,1,1.5,CF,DIO,NA,100,,,
683,305,2018,9.82,9.67,20.95,0.65,0.72,T1,5.42,3.91,1.51,CCCCCCC(C=C1)=CC=C1C(C2=C3SC(C4=C5C(SC(C(OCC(CC)CCCC)=O)=C5F)=C(/C=C6C(C(C=CC=C7)=C7C\6=C(C#N)\C#N)=O)S4)=C2)(C8=CC=C(CCCCCC)C=C8)C9=C3C=C(C(C%10=C%11SC(C%12=C%13C(SC(C(OCC(CCCC)CC)=O)=C%13F)=C(/C=C%14/C(C%15=C(C%14=O)C=CC=C%15)=C(C#N)/C#N)S%12)=C%10)(C%16=CC=C(CCCCCC)C=C%16)C%17=CC=C(CCCCCC)C=C%17)C%11=C9,1940.63,PTB7-Th,5.2,3.63,1.57,O=C(OCC(CC)CCCC)C1=C(F)C2=C(C)SC(C3=CC4=C(C(C5=CC=C(CC(CC)CCCC)S5)=C(C=C(C)S6)C6=C4C7=CC=C(CC(CC)CCCC)S7)S3)=C2S1,124,72.9,1.700960219,1,1.8,CB,NA,NA,,,,
684,305,2018,9.43,9.23,22,0.7,0.61,T3,5.31,4,1.31,CCCCCCC(C=C1)=CC=C1C(C2=C3SC(C4=C5C(SC(C(OCC(CC)CCCC)=O)=C5F)=C(/C=C6C(C(C=C(F)C(F)=C7)=C7C\6=C(C#N)\C#N)=O)S4)=C2)(C8=CC=C(CCCCCC)C=C8)C9=C3C=C(C(C%10=C%11SC(C%12=C%13C(SC(C(OCC(CCCC)CC)=O)=C%13F)=C(/C=C%14/C(C%15=C(C%14=O)C=C(F)C(F)=C%15)=C(C#N)/C#N)S%12)=C%10)(C%16=CC=C(CCCCCC)C=C%16)C%17=CC=C(CCCCCC)C=C%17)C%11=C9,2012.59,PTB7-Th,5.2,3.63,1.57,O=C(OCC(CC)CCCC)C1=C(F)C2=C(C)SC(C3=CC4=C(C(C5=CC=C(CC(CC)CCCC)S5)=C(C=C(C)S6)C6=C4C7=CC=C(CC(CC)CCCC)S7)S3)=C2S1,124,72.9,1.700960219,1,1.8,CB,NA,NA,,,,
685,305,2018,7.01,6.86,18.57,0.62,0.61,T4,5.36,4.01,1.35,CCCCCCC(C=C1)=CC=C1C(C2=C3SC(C4=C5C(SC(C(OCC(CC)CCCC)=O)=C5F)=C(/C=C6C(C(C=CC(F)=C7)=C7C\6=C(C#N)\C#N)=O)S4)=C2)(C8=CC=C(CCCCCC)C=C8)C9=C3C=C(C(C%10=C%11SC(C%12=C%13C(SC(C(OCC(CCCC)CC)=O)=C%13F)=C(/C=C%14/C(C%15=C(C%14=O)C=CC(F)=C%15)=C(C#N)/C#N)S%12)=C%10)(C%16=CC=C(CCCCCC)C=C%16)C%17=CC=C(CCCCCC)C=C%17)C%11=C9,1976.61,PTB7-Th,5.2,3.63,1.57,O=C(OCC(CC)CCCC)C1=C(F)C2=C(C)SC(C3=CC4=C(C(C5=CC=C(CC(CC)CCCC)S5)=C(C=C(C)S6)C6=C4C7=CC=C(CC(CC)CCCC)S7)S3)=C2S1,124,72.9,1.700960219,1,1.8,CB,NA,NA,,,,
686,305,2018,10.87,10.65,24.85,0.67,0.65,T2,5.34,3.96,1.38,CCCCCCC(C=C1)=CC=C1C(C2=C3SC(C4=C5C(SC(C(OCC(CC)CCCC)=O)=C5F)=C(/C=C6C(C(C=C(F)C=C7)=C7C\6=C(C#N)\C#N)=O)S4)=C2)(C8=CC=C(CCCCCC)C=C8)C9=C3C=C(C(C%10=C%11SC(C%12=C%13C(SC(C(OCC(CCCC)CC)=O)=C%13F)=C(/C=C%14/C(C%15=C(C%14=O)C=C(F)C=C%15)=C(C#N)/C#N)S%12)=C%10)(C%16=CC=C(CCCCCC)C=C%16)C%17=CC=C(CCCCCC)C=C%17)C%11=C9,1976.61,PTB7-Th,5.2,3.63,1.57,O=C(OCC(CC)CCCC)C1=C(F)C2=C(C)SC(C3=CC4=C(C(C5=CC=C(CC(CC)CCCC)S5)=C(C=C(C)S6)C6=C4C7=CC=C(CC(CC)CCCC)S7)S3)=C2S1,124,72.9,1.700960219,1,1.8,CB,CN,NA,,,,
687,306,2018,10.4,10.1,14.73,0.64,1.08,O-IDTBR,5.51,3.55,1.96,O=C(/C(S1)=C/C(C2=NSN=C32)=CC=C3C(S4)=CC5=C4C6=CC(C(CCCCCCCC)(CCCCCCCC)C7=C8SC(C9=CC=C(/C=C%10SC(N(CC)C\%10=O)=S)C%11=NSN=C9%11)=C7)=C8C=C6C5(CCCCCCCC)CCCCCCCC)N(CC)C1=S,1326.02,PffBT2T-TT,5.42,3.52,1.9,CC1=C(C=C(S1)C2=C(C(F)=C(C3=NSN=C32)C4=CC(CC(CCCCCCCCC)CCCCCCCCCCC)=C(S4)C5=CC6=C(C=C(C)S6)S5)F)CC(CCCCCCCCCCC)CCCCCCCCC,125,55.5,2.252252252,1,1.5,TMB,NA,90,,,,
688,307,2018,10.8,10.8,22.3,0.7,0.695,BT-CIC,5.49,4.09,1.4,CCCCC(COC1=C2C3=C(C(SC(/C=C4/C(C(C=C5Cl)=C(C4=O)C=C5Cl)=C(C#N)\C#N)=C6)=C6C(C(C=C7)=CC=C7CCCCCC)3C(C=C8)=CC=C8CCCCCC)SC2=C(C9=C1SC%10=C9C(C(C=C%11)=CC=C%11CCCCCC)(C(C=C%12)=CC=C%12CCCCCC)C%13=C%10SC(/C=C%14C(C(C=C(Cl)C(Cl)=C%15)=C%15C\%14=C(C#N)\C#N)=O)=C%13)OCC(CC)CCCC)CC,1822.15,PCE-10,5.22,3.21,2.01,CC(SC1=C2C3=CC=C(CC(CC)CCCC)S3)=CC1=C(C4=CC=C(CC(CC)CCCC)S4)C5=C2C=C(C6=C7C(SC(C(OCC(CC)CCCC)=O)=C7F)=C(C)S6)S5,141,65,2.169230769,1,1.5,CB/CF,NA,NA,95,,,
689,307,2018,10.8,10.8,24.7,0.67,0.65,TT-FIC,5.42,4.13,1.29,CCCCCCC(C=C1)=CC=C1C2(C3=CC=C(CCCCCC)C=C3)C4=C(SC5=C4SC6=C5C(C7=C6SC8=C7SC(/C=C9C(C(C=C(F)C(F)=C%10)=C%10C\9=C(C#N)\C#N)=O)=C8)(C%11=CC=C(CCCCCC)C=C%11)C%12=CC=C(CCCCCC)C=C%12)C%13=C2C(SC(/C=C%14C(C(C=C(F)C(F)=C%15)=C%15C\%14=C(C#N)/C#N)=O)=C%16)=C%16S%13,1562.02,PCE-10,5.22,3.21,2.01,CC(SC1=C2C3=CC=C(CC(CC)CCCC)S3)=CC1=C(C4=CC=C(CC(CC)CCCC)S4)C5=C2C=C(C6=C7C(SC(C(OCC(CC)CCCC)=O)=C7F)=C(C)S6)S5,141,65,2.169230769,1,1.5,CB/CF,NA,NA,95,,,
690,308,2019,11,10.8,21.1,0.583,0.9,Y5,5.55,3.87,1.68,O=C(C(C=CC=C1)=C1C/2=C(C#N)/C#N)C2=C/C3=C(CC(CC)CCCC)C(S4)=C(S3)C5=C4C6=C(N5CC(CC)CCCC)C7=C(C(SC8=C9SC(/C=C%10/C(C%11=C(C%10=O)C=CC=C%11)=C(C#N)/C#N)=C8CC(CC)CCCC)=C9N7CC(CC)CCCC)C%12=NSN=C6%12,1295.81,J61,5.32,3.08,2.24,CC1=CC(C(S1)=C2C3=CC=C(SCCCCCCCCCCCC)S3)=C(C4=C2C=C(C5=CC=C(C6=C(F)C(F)=C(C7=CC=C(C)S7)C8=NN(CC(CCCCCC)CCCCCCCC)N=C68)S5)S4)C9=CC=C(SCCCCCCCCCCCC)S9,78.318,34.2,2.29,1,1.5,CF,CN,110,150,,,
691,308,2019,13.1,13.1,21.2,0.696,0.89,Y5,5.55,3.87,1.68,O=C(C(C=CC=C1)=C1C/2=C(C#N)/C#N)C2=C/C3=C(CC(CC)CCCC)C(S4)=C(S3)C5=C4C6=C(N5CC(CC)CCCC)C7=C(C(SC8=C9SC(/C=C%10/C(C%11=C(C%10=O)C=CC=C%11)=C(C#N)/C#N)=C8CC(CC)CCCC)=C9N7CC(CC)CCCC)C%12=NSN=C6%12,1295.81,TTFQx-T1,5.31,3.62,1.69,FC1=C(C2=CC=C(C3=CC(C(C4=CC=C(CC(CC)CCCCC)S4)=C(SC(C)=C5)C5=C6C7=CC=C(CC(CC)CCCC)S7)=C6S3)S2)C8=NC(C9=CC(F)=C(CC(CC)CCCC)S9)=C(C%10=CC(F)=C(CC(CC)CCCC)S%10)N=C8C(C%11=CC=C(C)S%11)=C1F,71.2,24.8,2.870967742,1,1.5,CF,CN,110,150,,,
692,308,2019,14.1,13.9,22.8,0.702,0.88,Y5,5.55,3.87,1.68,O=C(C(C=CC=C1)=C1C/2=C(C#N)/C#N)C2=C/C3=C(CC(CC)CCCC)C(S4)=C(S3)C5=C4C6=C(N5CC(CC)CCCC)C7=C(C(SC8=C9SC(/C=C%10/C(C%11=C(C%10=O)C=CC=C%11)=C(C#N)/C#N)=C8CC(CC)CCCC)=C9N7CC(CC)CCCC)C%12=NSN=C6%12,1295.81,PBDB-T,5.38,3.5,1.88,CC(SC1=C2C3=CC=C(CC(CC)CCCC)S3)=CC1=C(C4=CC=C(CC(CC)CCCC)S4)C5=C2C=C(S5)C6=CC=C(C7=C8C(C(C9=C(CC(CC)CCCC)SC(CC(CC)CCCC)=C9C8=O)=O)=C(C%10=CC=C(C)S%10)S7)S6,117,58.5,2,1,1.5,CF,CN,110,150,,,
693,309,2019,11.8,11.5,17.2,0.679,0.96,IT-M,5.58,3.98,1.6,CCCCCCC(C=C1)=CC=C1C2(C3=CC=C(CCCCCC)C=C3)C4=CC5=C(C(C6=C5SC7=C6SC(/C=C8C(C(C=CC(C)=C9)=C9C\8=C(C#N)\C#N)=O)=C7)(C%10=CC=C(CCCCCC)C=C%10)C%11=CC=C(CCCCCC)C=C%11)C=C4C%12=C2C(SC(/C=C%13C(C(C=CC(C)=C%14)=C%14C\%13=C(C#N)/C#N)=O)=C%15)=C%15S%12,1456.01,FTAZ,5.36,3.05,2.31,CC1=CC2=C(S1)C(CCC(CCCC)CCCCCC)=C3C=C(SC3=C2CCC(CCCC)CCCCCC)C4=CC=C(S4)C5=C(C(F)=C(C6=NN(N=C65)CC(CCCC)CCCCCC)C7=CC=C(S7)C)F,99.592,42.2,2.36,1,1,TL,NA,150,100,,,
694,309,2019,7.2,6.7,13.5,0.528,0.94,IT-M,5.58,3.98,1.6,CCCCCCC(C=C1)=CC=C1C2(C3=CC=C(CCCCCC)C=C3)C4=CC5=C(C(C6=C5SC7=C6SC(/C=C8C(C(C=CC(C)=C9)=C9C\8=C(C#N)\C#N)=O)=C7)(C%10=CC=C(CCCCCC)C=C%10)C%11=CC=C(CCCCCC)C=C%11)C=C4C%12=C2C(SC(/C=C%13C(C(C=CC(C)=C%14)=C%14C\%13=C(C#N)/C#N)=O)=C%15)=C%15S%12,1456.01,PBDB-T,5.33,3.53,1.8,CC(SC1=C2C3=CC=C(CC(CC)CCCC)S3)=CC1=C(C4=CC=C(CC(CC)CCCC)S4)C5=C2C=C(S5)C6=CC=C(C7=C8C(C(C9=C(CC(CC)CCCC)SC(CC(CC)CCCC)=C9C8=O)=O)=C(C%10=CC=C(C)S%10)S7)S6,117,58.5,2,1,1,TL,NA,150,100,,,
695,310,2019,13.03,12.6,25.1,0.649,0.8,Y6,5.6,4.1,1.5,O=C(C(C=C(F)C(F)=C1)=C1C/2=C(C#N)/C#N)C2=C/C3=C(CCCCCCCCCCC)C(S4)=C(S3)C5=C4C6=C(N5CC(CC)CCCC)C7=C(C(SC8=C9SC(/C=C%10/C(C%11=C(C%10=O)C=C(F)C(F)=C%11)=C(C#N)/C#N)=C8CCCCCCCCCCC)=C9N7CC(CC)CCCC)C%12=NSN=C6%12,1451.94,PSFTZ,5.5,3.5,2,CC(SC1=C2C3=CC(F)=C(SCC(CCCC)CCCCCC)S3)=CC1=C(C4=CC(F)=C(SCC(CCCC)CCCCCC)S4)C5=C2C=C(C6=C(CCCCCCCC)C=C(C7=NN=C(C8=CC(CCCCCCCC)=C(C)S8)N=N7)S6)S5,219.18,78,2.81,1,1.3,CF,NA,NA,100,,,
696,311,2018,8.82,8.73,16.26,0.6844,0.8,HF-PCIC,5.53,3.83,1.7,O=C(C(C=C(F)C(F)=C1)=C1C/2=C(C#N)/C#N)C2=C/C3=CC(C4(CC(CC)CCCC)CC(CC)CCCC)=C(S3)C5=C4C=C(S5)C6=CC(F)=C(C(S7)=CC8=C7C(SC(/C=C9C(C(C=C(F)C(F)=C%10)=C%10C\9=C(C#N)\C#N)=O)=C%11)=C%11C8(CC(CC)CCCC)CC(CC)CCCC)C=C6F,1395.8,PBDB-T,5.33,3.53,1.8,CC(SC1=C2C3=CC=C(CC(CC)CCCC)S3)=CC1=C(C4=CC=C(CC(CC)CCCC)S4)C5=C2C=C(S5)C6=CC=C(C7=C8C(C(C9=C(CC(CC)CCCC)SC(CC(CC)CCCC)=C9C8=O)=O)=C(C%10=CC=C(C)S%10)S7)S6,117,58.5,2,1,1.2,CB,CN,110,,,,
697,311,2018,6.64,6.57,19.43,0.446,0.74,IEICO-4F,5.44,4.19,1.25,CCCCCCC(C=C1)=CC=C1C(C2=C3SC(C4=C(OCC(CC)CCCC)C=C(/C=C5C(C(C=C(F)C(F)=C6)=C6C\5=C(C#N)\C#N)=O)S4)=C2)(C7=CC=C(CCCCCC)C=C7)C8=C3C=C(C(C9=C%10SC(C(S%11)=C(C=C%11/C=C%12/C(C(C=C%13F)=C(C%12=O)C=C%13F)=C(C#N)/C#N)OCC(CCCC)CC)=C9)(C%14=CC=C(CCCCCC)C=C%14)C%15=CC=C(CCCCCC)C=C%15)C%10=C8,1808.42,PBDB-T,5.33,3.53,1.8,CC(SC1=C2C3=CC=C(CC(CC)CCCC)S3)=CC1=C(C4=CC=C(CC(CC)CCCC)S4)C5=C2C=C(S5)C6=CC=C(C7=C8C(C(C9=C(CC(CC)CCCC)SC(CC(CC)CCCC)=C9C8=O)=O)=C(C%10=CC=C(C)S%10)S7)S6,117,58.5,2,1,1.2,CB,CN,110,,,,
698,312,2019,12.3,12.1,21.61,0.692,0.83,IT-4F,5.69,4.07,1.62,CCCCCCC(C=C1)=CC=C1C2(C3=CC=C(CCCCCC)C=C3)C4=CC5=C(C(C6=C5SC7=C6SC(/C=C8C(C(C=C(F)C(F)=C9)=C9C\8=C(C#N)\C#N)=O)=C7)(C%10=CC=C(CCCCCC)C=C%10)C%11=CC=C(CCCCCC)C=C%11)C=C4C%12=C2C(SC(/C=C%13C(C(C=C(F)C(F)=C%14)=C%14C\%13=C(C#N)/C#N)=O)=C%15)=C%15S%12,1499.92,PBDB-T-2F,5.5,3.61,1.89,CC(SC1=C2C3=CC(F)=C(CC(CC)CCCC)S3)=CC1=C(C4=CC(F)=C(CC(CC)CCCC)S4)C5=C2C=C(C6=CC=C(C7=C8C(C(C9=C(CC(CC)CCCC)SC(CC(CC)CCCC)=C9C8=O)=O)=C(C%10=CC=C(C)S%10)S7)S6)S5,87.845,30.282,2.900898223,1,1,CB,DIO,100,,,,
699,313,2019,13.31,12.92,19.41,0.76,0.91,IT-4F,5.66,4.14,1.52,CCCCCCC(C=C1)=CC=C1C2(C3=CC=C(CCCCCC)C=C3)C4=CC5=C(C(C6=C5SC7=C6SC(/C=C8C(C(C=C(F)C(F)=C9)=C9C\8=C(C#N)\C#N)=O)=C7)(C%10=CC=C(CCCCCC)C=C%10)C%11=CC=C(CCCCCC)C=C%11)C=C4C%12=C2C(SC(/C=C%13C(C(C=C(F)C(F)=C%14)=C%14C\%13=C(C#N)/C#N)=O)=C%15)=C%15S%12,1499.92,Phl-ffBT,5.55,3.8,1.75,CCCCCCC(CCCCCCCC)CC1=C(C2=CC=C(C3=C(C(F)=C(C4=CC=C(C5=C(CC(CCCCCC)CCCCCCCC)C=C(C)S5)S4)C6=NSN=C63)F)S2)SC(C7=CC=C(C)C(C(N8CC(CCCCCC)CCCCCCCC)=O)=C7C8=O)=C1,54,36,1.5,1.2,1,CF,DIO,125,113,,,
700,313,2019,12.74,12.42,19.01,0.71,0.94,IT-4F,5.66,4.14,1.52,CCCCCCC(C=C1)=CC=C1C2(C3=CC=C(CCCCCC)C=C3)C4=CC5=C(C(C6=C5SC7=C6SC(/C=C8C(C(C=C(F)C(F)=C9)=C9C\8=C(C#N)\C#N)=O)=C7)(C%10=CC=C(CCCCCC)C=C%10)C%11=CC=C(CCCCCC)C=C%11)C=C4C%12=C2C(SC(/C=C%13C(C(C=C(F)C(F)=C%14)=C%14C\%13=C(C#N)/C#N)=O)=C%15)=C%15S%12,1499.92,ffPhl-ffBT,5.63,3.86,1.77,CCCCCCC(CCCCCCCC)CC1=C(C2=CC=C(C3=C(C(F)=C(C4=CC=C(C5=C(CC(CCCCCC)CCCCCCCC)C=C(C)S5)S4)C6=NSN=C63)F)S2)SC(C7=C(F)C(F)=C(C)C(C(N8CC(CCCCCC)CCCCCCCC)=O)=C7C8=O)=C1,69.6,58,1.2,1.2,1,CF,DIO,125,172,,,
701,314,2019,10.02,9.94,17.58,0.619,0.91,ITIC,5.51,3.78,1.73,CCCCCCC(C=C1)=CC=C1C2(C3=CC=C(CCCCCC)C=C3)C4=CC5=C(C(C6=C5SC7=C6SC(/C=C8C(C(C=CC=C9)=C9C\8=C(C#N)\C#N)=O)=C7)(C%10=CC=C(CCCCCC)C=C%10)C%11=CC=C(CCCCCC)C=C%11)C=C4C%12=C2C(SC(/C=C%13C(C(C=CC=C%14)=C%14C\%13=C(C#N)/C#N)=O)=C%15)=C%15S%12,1427.96,PBBF11,5.48,3.66,1.82,CC(SC1=C2C3=CC=C(CC(CC)CCCC)S3)=CC1=C(C4=CC=C(CC(CC)CCCC)S4)C5=C2C=C(C6=CC=C(C7=C8C(C(C9=C(CC(CC)CCCC)SC(CC(CC)CCCC)=C9C8=O)=O)=C(C%10=CC=C(C(SC%11=C%12C%13=CC=C(CC(CC)CCCC)S%13)=CC%11=C(C%14=CC=C(CC(CC)CCCC)S%14)C%15=C%12C=C(C%16=CC=C(C%17=C(F)C(F)=C(C%18=CC=C(C)S%18)C%19=NN(CC(CCCCCCCC)CCCCCC)N=C%19%17)S%16)S%15)S%10)S7)S6)S5,191.8,60.2,3.186046512,1,1,CB,NA,NA,,,,
702,315,2019,0.91,0.91,3.12,0.36,0.81,ORH-T2-OBAR,5.81,3.63,2.18,S=C(N(C/1=O)CCCCCCCC)SC1=C/C2=CC=C(C3=CC=C(/C=C(C(N(CCCCCCCC)C(N4CCCCCCCC)=O)=O)\C4=O)S3)S2,784.14,PTB7-Th,5.23,3.19,2.04,O=C(OCC(CC)CCCC)C1=C(F)C2=C(C)SC(C3=CC4=C(C(C5=CC=C(CC(CC)CCCC)S5)=C(C=C(C)S6)C6=C4C7=CC=C(CC(CC)CCCC)S7)S3)=C2S1,124,72.9,1.700960219,1,2,CF,NA,NA,,,,
703,316,2019,9,8.78,17.52,0.539,0.93,BTTFIC,5.56,3.95,1.61,O=C1C2=C(C(/C1=C/C3=CC(SC(C4=C5C=C(C6=C(C7(CCCCCCCC)CCCCCCCC)C=C8C(C(C9=C8SC%10=C9SC(/C=C%11C(C(C=CC=C%12)=C%12C\%11=C(C#N)/C#N)=O)=C%10)(CCCCCCCC)CCCCCCCC)=C6)C7=C4)=C%13C5(CCCCCCCC)CCCCCCCC)=C%13S3)=C(C#N)\C#N)C=CC=C2,1548.32,PBDB-T,5.33,2.92,2.41,CC(SC1=C2C3=CC=C(CC(CC)CCCC)S3)=CC1=C(C4=CC=C(CC(CC)CCCC)S4)C5=C2C=C(S5)C6=CC=C(C7=C8C(C(C9=C(CC(CC)CCCC)SC(CC(CC)CCCC)=C9C8=O)=O)=C(C%10=CC=C(C)S%10)S7)S6,117,58.5,2,1.5,1,DCB,NA,130,106,,,
704,316,2019,8.47,8.18,17.22,0.54,0.869,BTTFIC,5.56,3.95,1.61,O=C1C2=C(C(/C1=C/C3=CC(SC(C4=C5C=C(C6=C(C7(CCCCCCCC)CCCCCCCC)C=C8C(C(C9=C8SC%10=C9SC(/C=C%11C(C(C=CC=C%12)=C%12C\%11=C(C#N)/C#N)=O)=C%10)(CCCCCCCC)CCCCCCCC)=C6)C7=C4)=C%13C5(CCCCCCCC)CCCCCCCC)=C%13S3)=C(C#N)\C#N)C=CC=C2,1548.32,PTB7-Th,5.2,3.56,1.64,O=C(OCC(CC)CCCC)C1=C(F)C2=C(C)SC(C3=CC4=C(C(C5=CC=C(CC(CC)CCCC)S5)=C(C=C(C)S6)C6=C4C7=CC=C(CC(CC)CCCC)S7)S3)=C2S1,124,72.9,1.700960219,1,2,DCB,NA,130,101,,,
705,317,2019,6.03,5.88,12.09,0.65,0.74,Py-1,5.79,3.76,2.03,CCCCCCC(C=C1)=CC=C1C2(C3=CC=C(CCCCCC)C=C3)C4=C(C5=C2C6=C(C7=C8C(C9(C%10=CC=C(CCCCCC)C=C%10)C%11=CC=C(CCCCCC)C=C%11)=C(C=C7C=C6)C%12=C9C=C(/C=C%13/C(C%14=C(C%13=O)C=C(F)C(F)=C%14)=C(C#N)/C#N)S%12)C(C=C8)=C5)SC(/C=C%15/C(C%16=C(C%15=O)C=C(F)C(F)=C%16)=C(C#N)/C#N)=C4,1511.9,PTB7-Th,5.25,3.59,1.66,O=C(OCC(CC)CCCC)C1=C(F)C2=C(C)SC(C3=CC4=C(C(C5=CC=C(CC(CC)CCCC)S5)=C(C=C(C)S6)C6=C4C7=CC=C(CC(CC)CCCC)S7)S3)=C2S1,124,72.9,1.700960219,1,1.5,CF,NA,NA,,,,
706,317,2019,3.72,3.47,9.67,0.47,0.75,Py-2,5.83,3.78,2.05,FC(C(F)=C1)=CC2=C1C(/C(C2=O)=C/C3=CC4=C(C5=CC6=C(C7=C8C(C9(C%10=CC=C(CCCCCC)C=C%10)C%11=CC=C(CCCCCC)C=C%11)=C(C=C7C=C6)C%12=C9C=C(/C=C%13/C(C%14=C(C%13=O)C=C(F)C(F)=C%14)=C(C#N)/C#N)S%12)C(C=C8)=C5C(C(C=C%15)=CC=C%15CCCCCC)4C(C=C%16)=CC=C%16CCCCCC)S3)=C(C#N)/C#N,1511.9,PTB7-Th,5.25,3.59,1.66,O=C(OCC(CC)CCCC)C1=C(F)C2=C(C)SC(C3=CC4=C(C(C5=CC=C(CC(CC)CCCC)S5)=C(C=C(C)S6)C6=C4C7=CC=C(CC(CC)CCCC)S7)S3)=C2S1,124,72.9,1.700960219,1,1,CF,NA,NA,,,,
707,318,2019,1.26,1.26,4.13,0.33,0.91,T-ORH,6.56,3.64,2.92,S=C(N(C/1=O)CCCCCCCC)SC1=C/C2=CC=C(/C=C(S3)/C(N(CCCCCCCC)C3=S)=O)S2,594.92,PTB7-Th,5.23,3.19,2.04,O=C(OCC(CC)CCCC)C1=C(F)C2=C(C)SC(C3=CC4=C(C(C5=CC=C(CC(CC)CCCC)S5)=C(C=C(C)S6)C6=C4C7=CC=C(CC(CC)CCCC)S7)S3)=C2S1,124,72.9,1.700960219,1,2,CF,NA,NA,,,,
708,319,2018,8.45,8.29,15.3,0.731,0.755,FPIC,5.75,3.97,1.78,O=C1C2=C(C(/C1=C/C3=CC(SC(C4=CC5=CC=C6C7=C8C(SC9=C%10SC(/C=C%11/C(C%12=C(C%11=O)C=C(F)C(F)=C%12)=C(C#N)\C#N)=C9)=C%10C(C(C=C%13)=CC=C%13CCCCCC)7C(C=C%14)=CC=C%14CCCCCC)=C%15C(C(C=C%16)=CC=C%16CCCCCC)(C4=C(C=C%17)C5=C6C%17=C8)C(C=C%18)=CC=C%18CCCCCC)=C%15S3)=C(C#N)\C#N)C=C(F)C(F)=C2,1624.06,PTB7-Th,5.2,3.59,1.61,O=C(OCC(CC)CCCC)C1=C(F)C2=C(C)SC(C3=CC4=C(C(C5=CC=C(CC(CC)CCCC)S5)=C(C=C(C)S6)C6=C4C7=CC=C(CC(CC)CCCC)S7)S3)=C2S1,124,72.9,1.700960219,1,2,CF,DPE,NA,,,,
709,319,2018,9.55,9.47,23.3,0.634,0.645,F8IC,5.47,4.06,1.41,O=C1C2=C(C(/C1=C/C3=CC(SC(C4=C5C(S6)=C(S4)C7=C6C(SC8=C9SC(/C=C%10/C(C%11=C(C%10=O)C=C(F)C(F)=C%11)=C(C#N)\C#N)=C8)=C9C(C(C=C%12)=CC=C%12CCCCCC)7C(C=C%13)=CC=C%13CCCCCC)=C%14C5(C(C=C%15)=CC=C%15CCCCCC)C(C=C%16)=CC=C%16CCCCCC)=C%14S3)=C(C#N)\C#N)C=C(F)C(F)=C2,1562.02,PTB7-Th,5.2,3.59,1.61,O=C(OCC(CC)CCCC)C1=C(F)C2=C(C)SC(C3=CC4=C(C(C5=CC=C(CC(CC)CCCC)S5)=C(C=C(C)S6)C6=C4C7=CC=C(CC(CC)CCCC)S7)S3)=C2S1,124,72.9,1.700960219,1,2,CF,DPE,NA,,,,