ID,Ref,year,PCE_max(%),PCE_ave(%),Jsc(mA/cm2),FF,Voc(V),Nickname(n),-HOMO_n(eV),-LUMO_n(eV),Eg_n(eV),n(SMILES),M (g/mol),Nickname(p),-HOMO_p(eV),-LUMO_p(eV),Eg_p(eV),p(SMILES),Mw (kg/mol),Mn(kg/mol),PDI,p/n ratio (p),p/n ratio (n),Solvent,Additive,TA (oC),thick (nm),,Journal,DOI
115,46,2015,3.08,2.9,8.13,0.39,0.98,BNIDPA-BO,5.8,3.6,2.2,O=C(N(CC(CCCC)CCCCCC)C1=O)C2=CC=C3C4=C2C1=CC=C4C5=NC6=C(C=C(N=C7C(C8=CC=C9C%10=C8C7=CC=C%10C(N(CC(CCCC)CCCCCC)C9=O)=O)=C%11C%12=CC=CC=C%12)C%11=C6)C(C%13=CC=CC=C%13)=C53,1055.38,PTB7,5.1,3.3,1.8,CC1=C(C(F)=C(C(OCC(CC)CCCC)=O)S2)C2=C(C3=CC4=C(OCC(CCCC)CC)C(SC(C)=C5)=C5C(OCC(CCCC)CC)=C4S3)S1,97.5,46.4,2.1,1,3,CB/DCB,NA,NA,,,Adv. Energy Mater.,10.1002/aenm.201402041
116,46,2015,1.26,1.16,2.67,0.5,0.95,BNIDPA-DT,5.8,3.6,2.2,O=C(N(CC(CCCCCCCCCC)CCCCCCCCCCCC)C1=O)C2=CC=C3C4=C2C1=CC=C4C5=NC6=C(C=C(N=C7C(C8=CC=C9C%10=C8C7=CC=C%10C(N(CC(CCCCCCCCCC)CCCCCCCCCCCC)C9=O)=O)=C%11C%12=CC=CC=C%12)C%11=C6)C(C%13=CC=CC=C%13)=C53,1392.02,PSEHTT,5.1,3.3,1.8,CC1=CC(CC(CC)CCCC)=C(C2=NC(SC(C3=C(CC(CCCC)CC)C=C(C4=CC([Si](CC(CC)CCCC)(CC(CCCC)CC)C5=C6SC(C)=C5)=C6S4)S3)=N7)=C7S2)S1,132.21,33.9,3.9,1,4,CB/DCB,NA,175,,,Adv. Energy Mater.,10.1002/aenm.201402041
117,46,2015,1.71,1.6,5.2,0.36,0.9,BNIDPA-DT,5.8,3.6,2.2,O=C(N(CC(CCCCCCCCCC)CCCCCCCCCCCC)C1=O)C2=CC=C3C4=C2C1=CC=C4C5=NC6=C(C=C(N=C7C(C8=CC=C9C%10=C8C7=CC=C%10C(N(CC(CCCCCCCCCC)CCCCCCCCCCCC)C9=O)=O)=C%11C%12=CC=CC=C%12)C%11=C6)C(C%13=CC=CC=C%13)=C53,1392.02,PTB7-Th,5.4,3.3,2.1,O=C(OCC(CC)CCCC)C1=C(F)C2=C(C)SC(C3=CC4=C(C(C5=CC=C(CC(CC)CCCC)S5)=C(C=C(C)S6)C6=C4C7=CC=C(CC(CC)CCCC)S7)S3)=C2S1,124,72.9,1.7,1,3,CB/DCB,NA,NA,,,Adv. Energy Mater.,10.1002/aenm.201402041
118,46,2015,1.42,1.32,4.12,0.36,0.95,BNIDPA-DT,5.8,3.6,2.2,O=C(N(CC(CCCCCCCCCC)CCCCCCCCCCCC)C1=O)C2=CC=C3C4=C2C1=CC=C4C5=NC6=C(C=C(N=C7C(C8=CC=C9C%10=C8C7=CC=C%10C(N(CC(CCCCCCCCCC)CCCCCCCCCCCC)C9=O)=O)=C%11C%12=CC=CC=C%12)C%11=C6)C(C%13=CC=CC=C%13)=C53,1392.02,PTB7,5.1,3.3,1.8,CC1=C(C(F)=C(C(OCC(CC)CCCC)=O)S2)C2=C(C3=CC4=C(OCC(CCCC)CC)C(SC(C)=C5)=C5C(OCC(CCCC)CC)=C4S3)S1,97.5,46.4,2.1,1,3,CB/DCB,NA,NA,,,Adv. Energy Mater.,10.1002/aenm.201402041
119,47,2015,2.41,2.41,5.47,0.591,0.98,BiNDI,6.74,4.35,2.39,O=C(N(CC(CC)CCCC)C1=O)C2=CC=C(C(N3CC(CC)CCCC)=O)C4=C2C1=C(/C=C/C(C=C5C(N(CC(CC)CCCC)C6=O)=O)=C(C(N7CC(CC)CCCC)=O)C8=C5C6=CC=C8C7=O)C=C4C3=O,1005.31,PTB7,5.33,3.63,1.7,CC1=C(C(F)=C(C(OCC(CC)CCCC)=O)S2)C2=C(C3=CC4=C(OCC(CCCC)CC)C(SC(C)=C5)=C5C(OCC(CCCC)CC)=C4S3)S1,97.5,46.4,2.1,1,1,CB,DIO,NA,,,Adv. Energy Mater.,10.1002/aenm.201500195
120,48,2017,11.25,10.79,16.29,0.6878,0.96,IT-DM,5.58,3.98,1.6,CCCCCCC(C=C1)=CC=C1C2(C3=CC=C(CCCCCC)C=C3)C4=CC5=C(C(C6=C5SC7=C6SC(/C=C8C(C(C=C(C)C(C)=C9)=C9C\8=C(C#N)\C#N)=O)=C7)(C%10=CC=C(CCCCCC)C=C%10)C%11=CC=C(CCCCCC)C=C%11)C=C4C%12=C2C(SC(/C=C%13C(C(C=C(C)C(C)=C%14)=C%14C\%13=C(C#N)/C#N)=O)=C%15)=C%15S%12,1484.06,PBDB-T,5.36,3.54,1.82,CC(SC1=C2C3=CC=C(CC(CC)CCCC)S3)=CC1=C(C4=CC=C(CC(CC)CCCC)S4)C5=C2C=C(S5)C6=CC=C(C7=C8C(C(C9=C(CC(CC)CCCC)SC(CC(CC)CCCC)=C9C8=O)=O)=C(C%10=CC=C(C)S%10)S7)S6,117,58.5,2,1,1,CB,DIO,160,100,,Adv. Energy Mater.,10.1002/aenm.201602000
121,48,2017,12.05,11.48,17.31,0.707,0.94,IT-M,5.58,3.98,1.6,CCCCCCC(C=C1)=CC=C1C2(C3=CC=C(CCCCCC)C=C3)C4=CC5=C(C(C6=C5SC7=C6SC(/C=C8C(C(C=CC(C)=C9)=C9C\8=C(C#N)\C#N)=O)=C7)(C%10=CC=C(CCCCCC)C=C%10)C%11=CC=C(CCCCCC)C=C%11)C=C4C%12=C2C(SC(/C=C%13C(C(C=CC(C)=C%14)=C%14C\%13=C(C#N)/C#N)=O)=C%15)=C%15S%12,1456.01,PBDB-T,5.36,3.54,1.82,CC(SC1=C2C3=CC=C(CC(CC)CCCC)S3)=CC1=C(C4=CC=C(CC(CC)CCCC)S4)C5=C2C=C(S5)C6=CC=C(C7=C8C(C(C9=C(CC(CC)CCCC)SC(CC(CC)CCCC)=C9C8=O)=O)=C(C%10=CC=C(C)S%10)S7)S6,117,58.5,2,1,1,CB,DIO,160,100,,Adv. Energy Mater.,10.1002/aenm.201602000
122,49,2017,7.9,7.6,14.25,0.608,0.88,ITIC-Th,5.66,3.96,1.7,O=C(C(C=CC=C1)=C1C/2=C(C#N)\C#N)C2=C/C3=CC(S4)=C(S3)C5=C4C6=CC(C(C7=C8SC9=C7SC(/C=C%10C(C(C=CC=C%11)=C%11C\%10=C(C#N)\C#N)=O)=C9)(C%12=CC=C(CCCCCC)S%12)C%13=CC=C(CCCCCC)S%13)=C8C=C6C(C%14=CSC(CCCCCC)=C%14)5C%15=CC=C(CCCCCC)S%15,1452.04,PffBT-T3,5.39,3.31,2.08,FC(C(F)=C(C1=NSN=C12)C3=CC(CC(CCCCCC)CCCCCCCC)=C(S3)C4=CC(CC(CCCCCC)CCCCCCCC)=C(S4)C5=CC=C(C6=CC=C(C7=C(C(F)=C(C8=CC=C(C)S8)C9=NSN=C97)F)S6)S5)=C2C(S%10)=CC(CC(CCCCCC)CCCCCCCC)=C%10C%11=CC(CC(CCCCCC)CCCCCCCC)=C(C)S%11,144.4,72.2,2,1,1,CB,NA,NA,,,Adv. Energy Mater.,10.1002/aenm.201602119
123,49,2017,9,8.8,15.29,0.598,0.96,ITIC-Th,5.66,3.96,1.7,O=C(C(C=CC=C1)=C1C/2=C(C#N)\C#N)C2=C/C3=CC(S4)=C(S3)C5=C4C6=CC(C(C7=C8SC9=C7SC(/C=C%10C(C(C=CC=C%11)=C%11C\%10=C(C#N)\C#N)=O)=C9)(C%12=CC=C(CCCCCC)S%12)C%13=CC=C(CCCCCC)S%13)=C8C=C6C(C%14=CSC(CCCCCC)=C%14)5C%15=CC=C(CCCCCC)S%15,1452.04,PffBTBX-T3,5.48,3.39,2.09,FC(C(F)=C(C1=NON=C12)C3=CC(CC(CCCCCC)CCCCCCCC)=C(S3)C4=CC(CC(CCCCCC)CCCCCCCC)=C(S4)C5=CC=C(C6=CC=C(C7=C(C(F)=C(C8=CC=C(C)S8)C9=NSN=C97)F)S6)S5)=C2C(S%10)=CC(CC(CCCCCC)CCCCCCCC)=C%10C%11=CC(CC(CCCCCC)CCCCCCCC)=C(C)S%11,165.4,82.7,2,1,1,CB,NA,NA,,,Adv. Energy Mater.,10.1002/aenm.201602119
124,49,2017,7.4,7.1,11.72,0.569,1.07,ITIC-Th,5.66,3.96,1.7,O=C(C(C=CC=C1)=C1C/2=C(C#N)\C#N)C2=C/C3=CC(S4)=C(S3)C5=C4C6=CC(C(C7=C8SC9=C7SC(/C=C%10C(C(C=CC=C%11)=C%11C\%10=C(C#N)\C#N)=O)=C9)(C%12=CC=C(CCCCCC)S%12)C%13=CC=C(CCCCCC)S%13)=C8C=C6C(C%14=CSC(CCCCCC)=C%14)5C%15=CC=C(CCCCCC)S%15,1452.04,PffBX-T3,5.57,3.49,2.08,FC(C(F)=C(C1=NON=C12)C3=CC(CC(CCCCCC)CCCCCCCC)=C(S3)C4=CC(CC(CCCCCC)CCCCCCCC)=C(S4)C5=CC=C(C6=CC=C(C7=C(C(F)=C(C8=CC=C(C)S8)C9=NON=C97)F)S6)S5)=C2C(S%10)=CC(CC(CCCCCC)CCCCCCCC)=C%10C%11=CC(CC(CCCCCC)CCCCCCCC)=C(C)S%11,113.4,56.7,2,1,1,CB,NA,NA,,,Adv. Energy Mater.,10.1002/aenm.201602119
125,50,2017,7.8,7.4,14.26,0.593,0.9,ITIC,5.51,3.78,1.73,CCCCCCC(C=C1)=CC=C1C2(C3=CC=C(CCCCCC)C=C3)C4=CC5=C(C(C6=C5SC7=C6SC(/C=C8C(C(C=CC=C9)=C9C\8=C(C#N)\C#N)=O)=C7)(C%10=CC=C(CCCCCC)C=C%10)C%11=CC=C(CCCCCC)C=C%11)C=C4C%12=C2C(SC(/C=C%13C(C(C=CC=C%14)=C%14C\%13=C(C#N)/C#N)=O)=C%15)=C%15S%12,1427.96,PDTP4TFBT,5.26,3.21,2.05,CC1=C(C=C(C(S2)=CC3=C2C(S4)=C(N(CC(CCCCCC)CCCCCCCC)C3=O)C=C4C5=CC(CC(CCCCCC)CCCCCCCC)=C(C6=CC=C(C7=C(C(F)=C(C8=CC=C(C)S8)C9=NSN=C97)F)S6)S5)S1)CC(CCCCCC)CCCCCCCC,257.919,173.1,1.49,1,1.6,CB,NA,NA,,,Adv. Energy Mater.,10.1002/aenm.201602509
126,51,2017,6.3,6,12.31,0.51,1.01,IT-OM-1,5.5,3.76,1.74,CCCCCCC(C=C1)=CC=C1C2(C3=CC=C(CCCCCC)C=C3)C4=CC5=C(C(C6=C5SC7=C6SC(/C=C8C(C(C=CC=C9OC)=C9C\8=C(C#N)\C#N)=O)=C7)(C%10=CC=C(CCCCCC)C=C%10)C%11=CC=C(CCCCCC)C=C%11)C=C4C%12=C2C(SC(/C=C%13C(C(C=CC=C%14OC)=C%14C\%13=C(C#N)/C#N)=O)=C%15)=C%15S%12,1488.01,PBDB-T,5.36,3.54,1.82,CC(SC1=C2C3=CC=C(CC(CC)CCCC)S3)=CC1=C(C4=CC=C(CC(CC)CCCC)S4)C5=C2C=C(S5)C6=CC=C(C7=C8C(C(C9=C(CC(CC)CCCC)SC(CC(CC)CCCC)=C9C8=O)=O)=C(C%10=CC=C(C)S%10)S7)S6,117,58.5,2,1,1,CB,DIO,150,95,,Adv. Energy Mater.,10.1002/aenm.201700183
127,51,2017,11.9,11.5,17.53,0.73,0.93,IT-OM-2,5.49,3.86,1.63,CCCCCCC(C=C1)=CC=C1C2(C3=CC=C(CCCCCC)C=C3)C4=CC5=C(C(C6=C5SC7=C6SC(/C=C8C(C(C=CC(OC)=C9)=C9C\8=C(C#N)\C#N)=O)=C7)(C%10=CC=C(CCCCCC)C=C%10)C%11=CC=C(CCCCCC)C=C%11)C=C4C%12=C2C(SC(/C=C%13C(C(C=CC(OC)=C%14)=C%14C\%13=C(C#N)/C#N)=O)=C%15)=C%15S%12,1488.01,PBDB-T,5.36,3.54,1.82,CC(SC1=C2C3=CC=C(CC(CC)CCCC)S3)=CC1=C(C4=CC=C(CC(CC)CCCC)S4)C5=C2C=C(S5)C6=CC=C(C7=C8C(C(C9=C(CC(CC)CCCC)SC(CC(CC)CCCC)=C9C8=O)=O)=C(C%10=CC=C(C)S%10)S7)S6,117,58.5,2,1,1,CB,DIO,150,105,,Adv. Energy Mater.,10.1002/aenm.201700183
128,51,2017,10.8,10.5,16.38,0.68,0.97,IT-OM-3,5.52,3.8,1.72,CCCCCCC(C=C1)=CC=C1C2(C3=CC=C(CCCCCC)C=C3)C4=CC5=C(C(C6=C5SC7=C6SC(/C=C8C(C(C=C(OC)C=C9)=C9C\8=C(C#N)\C#N)=O)=C7)(C%10=CC=C(CCCCCC)C=C%10)C%11=CC=C(CCCCCC)C=C%11)C=C4C%12=C2C(SC(/C=C%13C(C(C=C(OC)C=C%14)=C%14C\%13=C(C#N)/C#N)=O)=C%15)=C%15S%12,1488.01,PBDB-T,5.36,3.54,1.82,CC(SC1=C2C3=CC=C(CC(CC)CCCC)S3)=CC1=C(C4=CC=C(CC(CC)CCCC)S4)C5=C2C=C(S5)C6=CC=C(C7=C8C(C(C9=C(CC(CC)CCCC)SC(CC(CC)CCCC)=C9C8=O)=O)=C(C%10=CC=C(C)S%10)S7)S6,117,58.5,2,1,1,CB,DIO,150,105,,Adv. Energy Mater.,10.1002/aenm.201700183
129,51,2017,7.9,7.5,14.69,0.56,0.96,IT-OM-4,5.49,3.81,1.68,CCCCCCC(C=C1)=CC=C1C2(C3=CC=C(CCCCCC)C=C3)C4=CC5=C(C(C6=C5SC7=C6SC(/C=C8C(C(C(OC)=CC=C9)=C9C\8=C(C#N)\C#N)=O)=C7)(C%10=CC=C(CCCCCC)C=C%10)C%11=CC=C(CCCCCC)C=C%11)C=C4C%12=C2C(SC(/C=C%13C(C(C(OC)=CC=C%14)=C%14C\%13=C(C#N)/C#N)=O)=C%15)=C%15S%12,1488.01,PBDB-T,5.36,3.54,1.82,CC(SC1=C2C3=CC=C(CC(CC)CCCC)S3)=CC1=C(C4=CC=C(CC(CC)CCCC)S4)C5=C2C=C(S5)C6=CC=C(C7=C8C(C(C9=C(CC(CC)CCCC)SC(CC(CC)CCCC)=C9C8=O)=O)=C(C%10=CC=C(C)S%10)S7)S6,117,58.5,2,1,1,CB,DIO,150,105,,Adv. Energy Mater.,10.1002/aenm.201700183
130,52,2017,10.6,10.6,15.27,0.7308,0.95,ITIC,5.51,3.84,1.67,CCCCCCC(C=C1)=CC=C1C2(C3=CC=C(CCCCCC)C=C3)C4=CC5=C(C(C6=C5SC7=C6SC(/C=C8C(C(C=CC=C9)=C9C\8=C(C#N)\C#N)=O)=C7)(C%10=CC=C(CCCCCC)C=C%10)C%11=CC=C(CCCCCC)C=C%11)C=C4C%12=C2C(SC(/C=C%13C(C(C=CC=C%14)=C%14C\%13=C(C#N)/C#N)=O)=C%15)=C%15S%12,1427.96,J81,5.43,2.98,2.45,CCC[Si](CCC)(C1=CC=C(C(C2=C3C=C(C4=CC=C(C5=C(F)C(F)=C(C6=CC=C(C)S6)C7=NN(CC(CCCCCC)CCCCCCCC)N=C57)S4)O2)=C8C(OC(C)=C8)=C3C9=CC=C([Si](CCC)(CCC)CCC)S9)S1)CCC,17.069,10.1,1.69,1,1,CF,NA,160,,,Adv. Energy Mater.,10.1002/aenm.201700746
131,52,2017,11.05,11.05,16.48,0.6983,0.96,m-ITIC,5.52,3.82,1.7,O=C(C(C=CC=C1)=C1C/2=C(C#N)\C#N)C2=C/C3=CC(S4)=C(S3)C5=C4C6=CC(C(C7=C8SC9=C7SC(/C=C%10C(C(C=CC=C%11)=C%11C\%10=C(C#N)\C#N)=O)=C9)(C%12=CC=CC(CCCCCC)=C%12)C%13=CC(CCCCCC)=CC=C%13)=C8C=C6C(C%14=CC(CCCCCC)=CC=C%14)5C%15=CC=CC(CCCCCC)=C%15,1427.96,J81,5.43,2.98,2.45,CCC[Si](CCC)(C1=CC=C(C(C2=C3C=C(C4=CC=C(C5=C(F)C(F)=C(C6=CC=C(C)S6)C7=NN(CC(CCCCCC)CCCCCCCC)N=C57)S4)O2)=C8C(OC(C)=C8)=C3C9=CC=C([Si](CCC)(CCC)CCC)S9)S1)CCC,17.069,10.1,1.69,1,1,CF,NA,160,,,Adv. Energy Mater.,10.1002/aenm.201700746
132,53,2017,6.05,6.05,12.55,0.67,0.72,IDTBR,5.51,3.88,1.63,O=C(/C(S1)=C/C(C2=NSN=C32)=CC=C3C(S4)=CC5=C4C6=CC(C(CCCCCCCC)(CCCCCCCC)C7=C8SC(C9=CC=C(/C=C%10SC(N(CC)C\%10=O)=S)C%11=NSN=C9%11)=C7)=C8C=C6C5(CCCCCCCC)CCCCCCCC)N(CC)C1=S,1326.02,P3HT,4.9,3.1,1.8,CC1=CC(CCCCCC)=C(C)S1,68,42.5,1.6,1,1,CB,4BA,NA,,,Adv. Energy Mater.,10.1002/aenm.201700770
133,54,2017,2.3,2.3,7.6,0.41,0.79,ITIC,5.51,3.84,1.67,CCCCCCC(C=C1)=CC=C1C2(C3=CC=C(CCCCCC)C=C3)C4=CC5=C(C(C6=C5SC7=C6SC(/C=C8C(C(C=CC=C9)=C9C\8=C(C#N)\C#N)=O)=C7)(C%10=CC=C(CCCCCC)C=C%10)C%11=CC=C(CCCCCC)C=C%11)C=C4C%12=C2C(SC(/C=C%13C(C(C=CC=C%14)=C%14C\%13=C(C#N)/C#N)=O)=C%15)=C%15S%12,1427.96,PBDT[2H]T,5.03,2.93,2.1,CC(SC1=C2OCC(CC)CCCC)=CC1=C(OCC(CC)CCCC)C3=C2C=C(S3)C4=CC=C(C)S4,48,28,1.7,1,1,CB,NA,160,75,,Adv. Energy Mater.,10.1002/aenm.201700834
134,54,2017,5.6,5.6,11.6,0.53,0.94,ITIC,5.51,3.84,1.67,CCCCCCC(C=C1)=CC=C1C2(C3=CC=C(CCCCCC)C=C3)C4=CC5=C(C(C6=C5SC7=C6SC(/C=C8C(C(C=CC=C9)=C9C\8=C(C#N)\C#N)=O)=C7)(C%10=CC=C(CCCCCC)C=C%10)C%11=CC=C(CCCCCC)C=C%11)C=C4C%12=C2C(SC(/C=C%13C(C(C=CC=C%14)=C%14C\%13=C(C#N)/C#N)=O)=C%15)=C%15S%12,1427.96,PBDT[2F]T,5.29,3.19,2.1,CC(SC1=C2OCC(CC)CCCC)=CC1=C(OCC(CC)CCCC)C3=C2C=C(S3)C4=C(F)C(F)=C(C)S4,28,13,2.1,1,0.67,CB,NA,NA,75,,Adv. Energy Mater.,10.1002/aenm.201700834
135,54,2017,9.1,9.1,16.9,0.62,0.94,ITIC,5.51,3.84,1.67,CCCCCCC(C=C1)=CC=C1C2(C3=CC=C(CCCCCC)C=C3)C4=CC5=C(C(C6=C5SC7=C6SC(/C=C8C(C(C=CC=C9)=C9C\8=C(C#N)\C#N)=O)=C7)(C%10=CC=C(CCCCCC)C=C%10)C%11=CC=C(CCCCCC)C=C%11)C=C4C%12=C2C(SC(/C=C%13C(C(C=CC=C%14)=C%14C\%13=C(C#N)/C#N)=O)=C%15)=C%15S%12,1427.96,PBDT(T)[2F]T,5.22,3.22,2,CC(SC1=C2C3=CC=C(CC(CC)CCCC)S3)=CC1=C(C4=CC=C(CC(CC)CCCC)S4)C5=C2C=C(S5)C6=C(F)C(F)=C(C)S6,49,32,1.5,1,1,CB,NA,160,75,,Adv. Energy Mater.,10.1002/aenm.201700834
136,55,2017,9.1,8.97,13.9,0.6834,0.96,m-ITIC,5.5,3.92,1.58,O=C(C(C=CC=C1)=C1C/2=C(C#N)\C#N)C2=C/C3=CC(S4)=C(S3)C5=C4C6=CC(C(C7=C8SC9=C7SC(/C=C%10C(C(C=CC=C%11)=C%11C\%10=C(C#N)\C#N)=O)=C9)(C%12=CC=CC(CCCCCC)=C%12)C%13=CC(CCCCCC)=CC=C%13)=C8C=C6C(C%14=CC(CCCCCC)=CC=C%14)5C%15=CC=CC(CCCCCC)=C%15,1427.96,PTPTI-T100,5.43,3.58,1.85,O=C(N(CC(CCCCCC)CCCCCCC)C1=C2SC(C)=C1)C3=C2C=C(C(N(CC(CCCCCC)CCCCCCCC)C4=C5SC(C6=CC=C(C)S6)=C4)=O)C5=C3,142.95,95.3,1.5,1,1.25,CB/CF,DIO,150,95,,Adv. Energy Mater.,10.1002/aenm.201701125
137,56,2018,6.6,6.2,13.32,0.569,0.85,ITIC-Th,5.66,3.93,1.73,O=C(C(C=CC=C1)=C1C/2=C(C#N)\C#N)C2=C/C3=CC(S4)=C(S3)C5=C4C6=CC(C(C7=C8SC9=C7SC(/C=C%10C(C(C=CC=C%11)=C%11C\%10=C(C#N)\C#N)=O)=C9)(C%12=CC=C(CCCCCC)S%12)C%13=CC=C(CCCCCC)S%13)=C8C=C6C(C%14=CSC(CCCCCC)=C%14)5C%15=CC=C(CCCCCC)S%15,1452.04,PffBT4T-2DT,5.24,3.59,1.65,CC1=C(C=C(S1)C2=C(C(F)=C(C3=NSN=C32)C4=CC(CC(CCCCCCCCCC)CCCCCCCCCCCC)=C(S4)C5=CC=C(S5)C6=CC=C(S6)C)F)CC(CCCCCCCCCCCC)CCCCCCCCCC,140,70,2,1,1.5,CB/DCB,NA,100,100,,Adv. Energy Mater.,10.1002/aenm.201701674
138,56,2018,8,7.3,14.25,0.608,0.88,ITIC-Th,5.66,3.93,1.73,O=C(C(C=CC=C1)=C1C/2=C(C#N)\C#N)C2=C/C3=CC(S4)=C(S3)C5=C4C6=CC(C(C7=C8SC9=C7SC(/C=C%10C(C(C=CC=C%11)=C%11C\%10=C(C#N)\C#N)=O)=C9)(C%12=CC=C(CCCCCC)S%12)C%13=CC=C(CCCCCC)S%13)=C8C=C6C(C%14=CSC(CCCCCC)=C%14)5C%15=CC=C(CCCCCC)S%15,1452.04,PffBT-T3,5.31,3.68,1.63,FC(C(F)=C(C1=NSN=C12)C3=CC(CC(CCCCCC)CCCCCCCC)=C(S3)C4=CC(CC(CCCCCC)CCCCCCCC)=C(S4)C5=CC=C(C6=CC=C(C7=C(C(F)=C(C8=CC=C(C)S8)C9=NSN=C97)F)S6)S5)=C2C(S%10)=CC(CC(CCCCCC)CCCCCCCC)=C%10C%11=CC(CC(CCCCCC)CCCCCCCC)=C(C)S%11,144.4,72.2,2,1,1.5,CB/DCB,NA,100,100,,Adv. Energy Mater.,10.1002/aenm.201701674
139,56,2018,9.2,8.7,15.35,0.642,0.92,ITIC-Th,5.66,3.93,1.73,O=C(C(C=CC=C1)=C1C/2=C(C#N)\C#N)C2=C/C3=CC(S4)=C(S3)C5=C4C6=CC(C(C7=C8SC9=C7SC(/C=C%10C(C(C=CC=C%11)=C%11C\%10=C(C#N)\C#N)=O)=C9)(C%12=CC=C(CCCCCC)S%12)C%13=CC=C(CCCCCC)S%13)=C8C=C6C(C%14=CSC(CCCCCC)=C%14)5C%15=CC=C(CCCCCC)S%15,1452.04,PTFB-P,5.32,3.33,1.99,CC1=C(C=C(S1)C2=C(C(F)=C(C3=NN(CCC)N=C32)C4=CC(CC(CCCCCCCCCC)CCCCCCCCCCCC)=C(S4)C5=CC=C(S5)C6=C(F)C=C(C7=CC=C(C)S7)C(F)=C6)F)CC(CCCCCCCCCCCC)CCCCCCCCCC,140,70,2,1,1.5,CB/DCB,NA,100,100,,Adv. Energy Mater.,10.1002/aenm.201701674
140,56,2018,10.9,10.4,16.7,0.676,0.92,ITIC-Th,5.66,3.93,1.73,O=C(C(C=CC=C1)=C1C/2=C(C#N)\C#N)C2=C/C3=CC(S4)=C(S3)C5=C4C6=CC(C(C7=C8SC9=C7SC(/C=C%10C(C(C=CC=C%11)=C%11C\%10=C(C#N)\C#N)=O)=C9)(C%12=CC=C(CCCCCC)S%12)C%13=CC=C(CCCCCC)S%13)=C8C=C6C(C%14=CSC(CCCCCC)=C%14)5C%15=CC=C(CCCCCC)S%15,1452.04,PTFB-O,5.36,3.36,2,CC1=C(C=C(S1)C2=C(C(F)=C(C3=NN(CCC)N=C32)C4=CC(CC(CCCCCCCCCC)CCCCCCCCCCCC)=C(S4)C5=CC=C(S5)C6=C(F)C(F)=C(C7=CC=C(C)S7)C=C6)F)CC(CCCCCCCCCCCC)CCCCCCCCCC,140,70,2,1,1.5,CB/DCB,NA,100,100,,Adv. Energy Mater.,10.1002/aenm.201701674
141,56,2018,8.5,8.1,16.07,0.672,0.8,ITIC-Th,5.66,3.93,1.73,O=C(C(C=CC=C1)=C1C/2=C(C#N)\C#N)C2=C/C3=CC(S4)=C(S3)C5=C4C6=CC(C(C7=C8SC9=C7SC(/C=C%10C(C(C=CC=C%11)=C%11C\%10=C(C#N)\C#N)=O)=C9)(C%12=CC=C(CCCCCC)S%12)C%13=CC=C(CCCCCC)S%13)=C8C=C6C(C%14=CSC(CCCCCC)=C%14)5C%15=CC=C(CCCCCC)S%15,1452.04,PTB7-Th,5.2,3.56,1.64,O=C(OCC(CC)CCCC)C1=C(F)C2=C(C)SC(C3=CC4=C(C(C5=CC=C(CC(CC)CCCC)S5)=C(C=C(C)S6)C6=C4C7=CC=C(CC(CC)CCCC)S7)S3)=C2S1,124,72.9,1.7,1,1,CB/DCB,NA,100,100,,Adv. Energy Mater.,10.1002/aenm.201701674
142,57,2018,11.07,10.65,20.11,0.6616,0.831,6TIC,5.21,3.83,1.38,O=C(C(C=CC=C1)=C1C/2=C(C#N)/C#N)C2=C/C3=CC(SC4=C5C(C6=CC=C(CCCCCC)C=C6)(C7=CC=C(CCCCCC)C=C7)C8=C4SC9=C8SC%10=C9C(C%11=CC=C(CCCCCC)C=C%11)(C%12=CC=C(CCCCCC)C=C%12)C%13=C%10SC%14=C%13SC(/C=C%15C(C(C=CC=C%16)=C%16C\%15=C(C#N)\C#N)=O)=C%14)=C5S3,1490.06,PTB7-Th,5.1,3.6,1.5,O=C(OCC(CC)CCCC)C1=C(F)C2=C(C)SC(C3=CC4=C(C(C5=CC=C(CC(CC)CCCC)S5)=C(C=C(C)S6)C6=C4C7=CC=C(CC(CC)CCCC)S7)S3)=C2S1,124,72.9,1.7,1,1.5,CB,DIO,150,,,Adv. Energy Mater.,10.1002/aenm.201702831
143,58,2018,9.59,9.38,15.02,0.67,0.94,FDICTF(F-H),5.42,3.79,1.63,O=C(C(C=CC=C1)=C1C/2=C(C#N)/C#N)C2=C/C3=CC4=C(S3)C5=CC6=C(C(C=C(C(CCCCCCCC)(CCCCCCCC)C7=C8SC(/C=C9C(C(C=CC=C%10)=C%10C\9=C(C#N)\C#N)=O)=C7)C8=C%11)=C%11C6(CCCCCCCC)CCCCCCCC)C=C5C4(CCCCCCCC)CCCCCCCC,1436.16,PBDB-T,5.18,3.38,1.8,CC(SC1=C2C3=CC=C(CC(CC)CCCC)S3)=CC1=C(C4=CC=C(CC(CC)CCCC)S4)C5=C2C=C(S5)C6=CC=C(C7=C8C(C(C9=C(CC(CC)CCCC)SC(CC(CC)CCCC)=C9C8=O)=O)=C(C%10=CC=C(C)S%10)S7)S6,117,58.5,2,1,1,CB,DIO,NA,150,,Adv. Energy Mater.,10.1002/aenm.201702870
144,58,2018,10.85,10.67,17.36,0.71,0.88,FDICTF(F-F),5.72,4.13,1.59,O=C(C(C=CC(F)=C1)=C1C/2=C(C#N)/C#N)C2=C/C3=CC4=C(S3)C5=CC6=C(C(C=C(C(CCCCCCCC)(CCCCCCCC)C7=C8SC(/C=C9C(C(C=CC(F)=C%10)=C%10C\9=C(C#N)\C#N)=O)=C7)C8=C%11)=C%11C6(CCCCCCCC)CCCCCCCC)C=C5C4(CCCCCCCC)CCCCCCCC,1472.14,PBDB-T,5.18,3.38,1.8,CC(SC1=C2C3=CC=C(CC(CC)CCCC)S3)=CC1=C(C4=CC=C(CC(CC)CCCC)S4)C5=C2C=C(S5)C6=CC=C(C7=C8C(C(C9=C(CC(CC)CCCC)SC(CC(CC)CCCC)=C9C8=O)=O)=C(C%10=CC=C(C)S%10)S7)S6,117,58.5,2,1,1.2,CB,DIO,NA,150,,Adv. Energy Mater.,10.1002/aenm.201702870
145,58,2018,11.47,11.26,17.61,0.75,0.87,FDICTF(F-Cl),5.62,4.04,1.58,O=C(C(C=CC(Cl)=C1)=C1C/2=C(C#N)/C#N)C2=C/C3=CC4=C(S3)C5=CC6=C(C(C=C(C(CCCCCCCC)(CCCCCCCC)C7=C8SC(/C=C9C(C(C=CC(Cl)=C%10)=C%10C\9=C(C#N)\C#N)=O)=C7)C8=C%11)=C%11C6(CCCCCCCC)CCCCCCCC)C=C5C4(CCCCCCCC)CCCCCCCC,1505.04,PBDB-T,5.18,3.38,1.8,CC(SC1=C2C3=CC=C(CC(CC)CCCC)S3)=CC1=C(C4=CC=C(CC(CC)CCCC)S4)C5=C2C=C(S5)C6=CC=C(C7=C8C(C(C9=C(CC(CC)CCCC)SC(CC(CC)CCCC)=C9C8=O)=O)=C(C%10=CC=C(C)S%10)S7)S6,117,58.5,2,1,1,CB,DIO,NA,150,,Adv. Energy Mater.,10.1002/aenm.201702870
146,58,2018,12.05,11.88,18.22,0.76,0.87,FDICTF(F-Br),5.62,4.06,1.56,O=C(C(C=CC(Br)=C1)=C1C/2=C(C#N)/C#N)C2=C/C3=CC4=C(S3)C5=CC6=C(C(C=C(C(CCCCCCCC)(CCCCCCCC)C7=C8SC(/C=C9C(C(C=CC(Br)=C%10)=C%10C\9=C(C#N)\C#N)=O)=C7)C8=C%11)=C%11C6(CCCCCCCC)CCCCCCCC)C=C5C4(CCCCCCCC)CCCCCCCC,1593.95,PBDB-T,5.18,3.38,1.8,CC(SC1=C2C3=CC=C(CC(CC)CCCC)S3)=CC1=C(C4=CC=C(CC(CC)CCCC)S4)C5=C2C=C(S5)C6=CC=C(C7=C8C(C(C9=C(CC(CC)CCCC)SC(CC(CC)CCCC)=C9C8=O)=O)=C(C%10=CC=C(C)S%10)S7)S6,117,58.5,2,1,1,CB,DIO,NA,150,,Adv. Energy Mater.,10.1002/aenm.201702870
147,59,2018,11.7,11.5,18.63,0.717,0.88,NNBDT,5.46,3.94,1.52,O=C(C(C=C1C(C=CC=C1)=C2)=C2C/3=C(C#N)/C#N)C3=C/C(S4)=CC5=C4C6=C(C5(C7=CC=C(CCCCCC)C=C7)C8=CC=C(CCCCCC)C=C8)C9=C(CCCCCCCC)C%10=C(C(C(C%11=CC=C(CCCCCC)C=C%11)(C%12=CC=C(CCCCCC)C=C%12)C%13=C%14SC(/C=C%15C(C(C=C%16C(C=CC=C%16)=C%17)=C%17C\%15=C(C#N)\C#N)=O)=C%13)=C%14S%10)C(CCCCCCCC)=C9S6,1752.51,PBDB-T,5.26,3.63,1.63,CC(SC1=C2C3=CC=C(CC(CC)CCCC)S3)=CC1=C(C4=CC=C(CC(CC)CCCC)S4)C5=C2C=C(S5)C6=CC=C(C7=C8C(C(C9=C(CC(CC)CCCC)SC(CC(CC)CCCC)=C9C8=O)=O)=C(C%10=CC=C(C)S%10)S7)S6,117,58.5,2,1,0.8,CF,DIO,NA,NA,,Adv. Energy Mater.,10.1002/aenm.201800424
148,59,2018,10.8,10.6,15.9,0.746,0.909,FDNCTF,5.54,3.9,1.64,O=C(C(C=C1C(C=CC=C1)=C2)=C2C/3=C(C#N)/C#N)C3=C/C(S4)=CC5=C4C(C=C(C(CCCCCCCC)(CCCCCCCC)C6=C7C=C8C(C(SC(/C=C9C(C(C=C%10C(C=CC=C%10)=C%11)=C%11C\9=C(C#N)\C#N)=O)=C%12)=C%12C8(CCCCCCCC)CCCCCCCC)=C6)C7=C%13)=C%13C5(CCCCCCCC)CCCCCCCC,1536.28,PBDB-T,5.26,3.63,1.63,CC(SC1=C2C3=CC=C(CC(CC)CCCC)S3)=CC1=C(C4=CC=C(CC(CC)CCCC)S4)C5=C2C=C(S5)C6=CC=C(C7=C8C(C(C9=C(CC(CC)CCCC)SC(CC(CC)CCCC)=C9C8=O)=O)=C(C%10=CC=C(C)S%10)S7)S6,117,58.5,2,1,0.8,CF,DIO,NA,NA,,Adv. Energy Mater.,10.1002/aenm.201800424
149,60,2018,12.53,12.04,18.98,0.691,0.955,m-ITIC-2F,5.73,3.95,1.78,O=C(C(C=CC(F)=C1)=C1C/2=C(C#N)\C#N)C2=C/C3=CC(S4)=C(S3)C5=C4C6=CC(C(C7=C8SC9=C7SC(/C=C%10C(C(C=CC(F)=C%11)=C%11C\%10=C(C#N)\C#N)=O)=C9)(C%12=CC=CC(CCCCCC)=C%12)C%13=CC(CCCCCC)=CC=C%13)=C8C=C6C(C%14=CC(CCCCCC)=CC=C%14)5C%15=CC=CC(CCCCCC)=C%15,1463.94,PTQ10,5.54,2.98,2.56,FC1=C(C2=CC=C(C)S2)C3=NC(OCC(CCCCCC)CCCCCCCC)=CN=C3C(C)=C1F,82.11,39.1,2.1,1,1,CF,NA,130,100,,Adv. Energy Mater.,10.1002/aenm.201800815
150,60,2018,12.53,12.03,19.76,0.703,0.902,m-ITIC-4F,5.73,4.02,1.71,O=C(C(C=C(F)C(F)=C1)=C1C/2=C(C#N)\C#N)C2=C/C3=CC(S4)=C(S3)C5=C4C6=CC(C(C7=C8SC9=C7SC(/C=C%10C(C(C=C(F)C(F)=C%11)=C%11C\%10=C(C#N)\C#N)=O)=C9)(C%12=CC=CC(CCCCCC)=C%12)C%13=CC(CCCCCC)=CC=C%13)=C8C=C6C(C%14=CC(CCCCCC)=CC=C%14)5C%15=CC=CC(CCCCCC)=C%15,1499.92,PTQ10,5.54,2.98,2.56,FC1=C(C2=CC=C(C)S2)C3=NC(OCC(CCCCCC)CCCCCCCC)=CN=C3C(C)=C1F,82.11,39.1,2.1,1,1,CF,NA,130,100,,Adv. Energy Mater.,10.1002/aenm.201800815
151,61,2018,9,8.6,21.6,0.614,0.65,SiOTIC-4F,5.28,4.11,1.17,O=C(C(C=C(F)C(F)=C1)=C1C/2=C(C#N)\C#N)C2=C/C(S3)=CC(OCC(CC)CCCCC)=C3C(S4)=CC5=C4C(SC(C6=C(OCC(CC)CCCCC)C=C(/C=C7C(C(C=C(F)C(F)=C8)=C8C\7=C(C#N)\C#N)=O)S6)=C9)=C9[Si]5(CC(CC)CCCC)CC(CC)CCCC,1347.83,PTB7-Th,5.2,3.61,1.59,O=C(OCC(CC)CCCC)C1=C(F)C2=C(C)SC(C3=CC4=C(C(C5=CC=C(CC(CC)CCCC)S5)=C(C=C(C)S6)C6=C4C7=CC=C(CC(CC)CCCC)S7)S3)=C2S1,124,72.9,1.7,1,1.5,CF,CN,NA,,,Adv. Energy Mater.,10.1002/aenm.201801212