ID,Ref,year,PCE_max(%),PCE_ave(%),Jsc(mA/cm2),FF,Voc(V),Nickname(n),-HOMO_n(eV),-LUMO_n(eV),Eg_n(eV),n(SMILES),M (g/mol),Nickname(p),-HOMO_p(eV),-LUMO_p(eV),Eg_p(eV),p(SMILES),Mw (kg/mol),Mn(kg/mol),PDI,p/n ratio (p),p/n ratio (n),Solvent,Additive,TA (oC),thick (nm),,Journal,DOI
342,151,2019,3.8,3.8,10.51,0.47,0.77,STFIC,5.63,4.06,1.57,CC(C)(C)C(C=C1)=CC=C1O[B@]23N4C5=C6C(C=C(C7=C(CCCCCCCC)C=C(/C=C8C(C(C=C(F)C(F)=C9)=C9C\8=C(C#N)/C#N)=O)S7)C=C6)=C4N=C%10C%11=C(C=C(C%12=C(CCCCCCCC)C=C(/C=C%13C(C(C=C(F)C(F)=C%14)=C%14C\%13=C(C#N)/C#N)=O)S%12)C=C%11)C(N%103)=NC%15=[N]2C(C%16=C%15C=C(C%17=C(CCCCCCCC)C=C(/C=C%18C(C(C=C(F)C(F)=C%19)=C%19C\%18=C(C#N)/C#N)=O)S%17)C=C%16)=N5,1847.94,PBDB-T,5.33,3.53,1.8,CC(SC1=C2C3=CC=C(CC(CC)CCCC)S3)=CC1=C(C4=CC=C(CC(CC)CCCC)S4)C5=C2C=C(S5)C6=CC=C(C7=C8C(C(C9=C(CC(CC)CCCC)SC(CC(CC)CCCC)=C9C8=O)=O)=C(C%10=CC=C(C)S%10)S7)S6,117,58.5,2,1,1,CB,CN,NA,,,Dyes and Pigments,10.1016/j.dyepig.2018.07.050
343,152,2014,3.2,3.2,9,0.46,0.77,bis-PDI,5.9,3.8,2.1,O=C(N(C(CCCCCCC)CCCCCCC)C1=O)C2=CC=C(C3=C4C=CC1C32)C5=CC=C6C7=C5C4=CC=C7C(N(N8C(C9=CC=C%10C%11=C9C(C8=O)=CC=C%11C%12=CC=C(C%13=O)C%14C%12=C%10C=CC%14C(N%13C(CCCCCCC)CCCCCCC)=O)=O)C6=O)=O,1203.53,PBDTTT-C-T,5.11,3.25,1.86,O=C(C1=CC2=C(SC(C3=CC4=C(S3)C(C5=CC=C(S5)CC(CCCC)CC)=C6C=C(SC6=C4C7=CC=C(S7)CC(CCCC)CC)C)=C2S1)C)CC(CC)CCCC,56,20,2.8,1,1,CF,NA,NA,,,Energy Environ. Sci.,10.1039/c3ee42484g
344,153,2015,6.3,6,10.7,0.57,0.98,SF-PDI2,5.9,3.83,2.07,O=C(N(C(CCCCC)CCCCC)C1=O)C2=CC=C(C3=C4C=CC1C32)C5=C(C6=CC7=C(C8C(C7(C9C%10C=CC=C9)C%11=C%10C=CC=C%11)C=C(C%12=C(C%13=C%14C=CC%15C%13C(C(N(C(CCCCC)CCCCC)C%15=O)=O)=C%12)C%16=CC=C%17C%18=C%16C%14=CC=C%18C(N(C(CCCCC)CCCCC)C%17=O)=O)C=C8)C=C6)C=C%19C%20=C5C4=CC=C%20C(N(C(CCCCC)CCCCC)C%19=O)=O,1718.33,PffBT4T-2DT,5.36,3.71,1.65,CC1=C(C=C(S1)C2=C(C(F)=C(C3=NSN=C32)C4=CC(CC(CCCCCCCCCC)CCCCCCCCCCCC)=C(S4)C5=CC=C(S5)C6=CC=C(S6)C)F)CC(CCCCCCCCCCCC)CCCCCCCCCC,140,70,2,1,1.4,CB,NA,100,120,,Energy Environ. Sci.,10.1039/c4ee02990a
345,153,2015,5.4,5.1,11.4,0.53,0.84,diPDI,5.99,3.96,2.03,O=C(N(C(CCCCCC)CCCCCC)C1=O)C2=CC3=C(C4=CC5=C6C7=C4C8=CC=C(C(N9C(CCCCCC)CCCCCC)=O)C%10=C8C(C7=CC=C6C(N(C(CCCCCC)CCCCCC)C5=O)=O)=CC=C%10C9=O)C=C%11C=C%12C%13=C%14C%11=C3C(C2=C1C=C%15)=C%15C%14=CC=C%13C(N(C(CCCCCC)CCCCCC)C%12=O)=O,1532.12,PffBT4T-2DT,5.36,3.71,1.65,CC1=C(C=C(S1)C2=C(C(F)=C(C3=NSN=C32)C4=CC(CC(CCCCCCCCCC)CCCCCCCCCCCC)=C(S4)C5=CC=C(S5)C6=CC=C(S6)C)F)CC(CCCCCCCCCCCC)CCCCCCCCCC,140,70,2,1,1.4,CB,NA,100,120,,Energy Environ. Sci.,10.1039/c4ee02990a
346,153,2015,3,2.9,7.4,0.39,1,SF-PDI2,5.9,3.83,2.07,O=C(N(C(CCCCC)CCCCC)C1=O)C2=CC=C(C3=C4C=CC1C32)C5=C(C6=CC7=C(C8C(C7(C9C%10C=CC=C9)C%11=C%10C=CC=C%11)C=C(C%12=C(C%13=C%14C=CC%15C%13C(C(N(C(CCCCC)CCCCC)C%15=O)=O)=C%12)C%16=CC=C%17C%18=C%16C%14=CC=C%18C(N(C(CCCCC)CCCCC)C%17=O)=O)C=C8)C=C6)C=C%19C%20=C5C4=CC=C%20C(N(C(CCCCC)CCCCC)C%19=O)=O,1718.33,PTB7-Th,5.39,3.79,1.6,O=C(OCC(CC)CCCC)C1=C(F)C2=C(C)SC(C3=CC4=C(C(C5=CC=C(CC(CC)CCCC)S5)=C(C=C(C)S6)C6=C4C7=CC=C(CC(CC)CCCC)S7)S3)=C2S1,124,72.9,1.7,1,1.4,CB,NA,100,120,,Energy Environ. Sci.,10.1039/c4ee02990a
347,154,2015,6.31,6.08,13.55,0.48,0.97,IEIC,5.45,3.88,1.57,CCCCCCC(C=C1)=CC=C1C(C2=C3SC(C4=C(CC(CC)CCCC)C=C(/C=C5C(C(C=CC=C6)=C6C\5=C(C#N)\C#N)=O)S4)=C2)(C7=CC=C(CCCCCC)C=C7)C8=C3C=C(C(C9=C%10SC(C(S%11)=C(C=C%11/C=C%12/C(C%13=C(C%12=O)C=CC=C%13)=C(C#N)/C#N)CC(CC)CCCC)=C9)(C%14=CC=C(CCCCCC)C=C%14)C%15=CC=C(CCCCCC)C=C%15)C%10=C8,1704.46,PTB7-Th,5.39,3.79,1.6,O=C(OCC(CC)CCCC)C1=C(F)C2=C(C)SC(C3=CC4=C(C(C5=CC=C(CC(CC)CCCC)S5)=C(C=C(C)S6)C6=C4C7=CC=C(CC(CC)CCCC)S7)S3)=C2S1,124,72.9,1.7,1,1.5,CB,NA,NA,,,Energy Environ. Sci.,10.1039/c4ee03424d
348,155,2016,8.58,8.21,15.2,0.62,0.91,IDSe-T-IC,5.45,3.79,1.66,CCCCCCC(C=C1)=CC=C1C(C2=C3[Se]C(C4=C(CC(CC)CCCC)C(C=C5C(C(C=CC=C6)=C6/C5=C(C#N)/C#N)=O)=CS4)=C2)(C7=CC=C(CCCCCC)C=C7)C8=C3C=C(C(C9=C%10[Se]C(C%11=C(C(/C=C%12\C(C%13=C(C%12=O)C=CC=C%13)=C(C#N)\C#N)=CS%11)CC(CC)CCCC)=C9)(C%14=CC=C(CCCCCC)C=C%14)C%15=CC=C(CCCCCC)C=C%15)C%10=C8,1798.26,J51,5.29,3.3,1.99,CC1=CC(C(S1)=C2C3=CC=C(CC(CCCCCC)CCCCCCCC)S3)=C(C4=C2C=C(C5=CC=C(C6=C(F)C(F)=C(C7=CC=C(C)S7)C8=NN(CCCCCCCC)N=C68)S5)S4)C9=CC=C(CC(CCCCCC)CCCCCCCC)S9,140,70,2,1,1,CF,NA,NA,,,Energy Environ. Sci.,10.1039/c6ee00315j
349,156,2017,11.9,11.4,18.9,0.63,1,IT-M,5.58,3.96,1.62,CCCCCCC(C=C1)=CC=C1C2(C3=CC=C(CCCCCC)C=C3)C4=CC5=C(C(C6=C5SC7=C6SC(/C=C8C(C(C=CC(C)=C9)=C9C\8=C(C#N)\C#N)=O)=C7)(C%10=CC=C(CCCCCC)C=C%10)C%11=CC=C(CCCCCC)C=C%11)C=C4C%12=C2C(SC(/C=C%13C(C(C=CC(C)=C%14)=C%14C\%13=C(C#N)/C#N)=O)=C%15)=C%15S%12,1456.01,PB3T,5.39,3.37,2.02,CC1=CC(C(S1)=C2C3=CC=C(SCCCCCCCC)S3)=C(C4=C2C=C(C5=CC(C(OCC(CC)CCCC)=O)=C(C6=CC=C(C7=C(C(OCC(CC)CCCC)=O)C=C(C)S7)S6)S5)S4)C8=CC=C(SCCCCCCCC)S8,107.457,35.7,3.01,1,0.67,AS,NA,NA,,,Energy Environ. Sci.,10.1039/c6ee03489f
350,156,2017,0.01,0.01,0.08,0.26,0.56,IT-M,5.58,3.96,1.62,CCCCCCC(C=C1)=CC=C1C2(C3=CC=C(CCCCCC)C=C3)C4=CC5=C(C(C6=C5SC7=C6SC(/C=C8C(C(C=CC(C)=C9)=C9C\8=C(C#N)\C#N)=O)=C7)(C%10=CC=C(CCCCCC)C=C%10)C%11=CC=C(CCCCCC)C=C%11)C=C4C%12=C2C(SC(/C=C%13C(C(C=CC(C)=C%14)=C%14C\%13=C(C#N)/C#N)=O)=C%15)=C%15S%12,1456.01,PB2T,5.63,3.63,2,CC1=CC(C(S1)=C2C3=CC=C(SCCCCCCCC)S3)=C(C4=C2C=C(C5=CC(C(OCC(CC)CCCC)=O)=C(C6=C(C(OCC(CC)CCCC)=O)C=C(C)S6)S5)S4)C7=CC=C(SCCCCCCCC)S7,59.888,30.4,1.97,1,1,CB,NA,150,,,Energy Environ. Sci.,10.1039/c6ee03489f
351,157,2017,9.56,9.37,16.35,0.671,0.87,BT-IC,5.32,3.85,1.47,O=C(C(C=CC=C1)=C1C/2=C(C#N)\C#N)C2=C/C3=CC(C4(C5=CC=C(CCCCCC)C=C5)C6=CC=C(CCCCCC)C=C6)=C(S3)C7=C4C8=C(OCC(CC)CCCC)C(SC9=C%10C(C%11=CC=C(CCCCCC)C=C%11)(C%12=CC=C(CCCCCC)C=C%12)C%13=C9SC(/C=C%14C(C(C=CC=C%15)=C%15C\%14=C(C#N)\C#N)=O)=C%13)=C%10C(OCC(CC)CCCCC)=C8S7,1698.41,J61,5.22,3.21,2.01,CC1=CC(C(S1)=C2C3=CC=C(SCCCCCCCCCCCC)S3)=C(C4=C2C=C(C5=CC=C(C6=C(F)C(F)=C(C7=CC=C(C)S7)C8=NN(CC(CCCCCC)CCCCCCCC)N=C68)S5)S4)C9=CC=C(SCCCCCCCCCCCC)S9,140,70,2,1,1,CF,NA,NA,,,Energy Environ. Sci.,10.1039/c7ee00844a
352,157,2017,10.46,10.28,17.75,0.657,0.9,BT-IC,5.32,3.85,1.47,O=C(C(C=CC=C1)=C1C/2=C(C#N)\C#N)C2=C/C3=CC(C4(C5=CC=C(CCCCCC)C=C5)C6=CC=C(CCCCCC)C=C6)=C(S3)C7=C4C8=C(OCC(CC)CCCC)C(SC9=C%10C(C%11=CC=C(CCCCCC)C=C%11)(C%12=CC=C(CCCCCC)C=C%12)C%13=C9SC(/C=C%14C(C(C=CC=C%15)=C%15C\%14=C(C#N)\C#N)=O)=C%13)=C%10C(OCC(CC)CCCCC)=C8S7,1698.41,J71,5.25,3.18,2.07,CCC[Si](CCC)(C1=CC=C(C(C2=C3C=C(C4=CC=C(C5=C(F)C(F)=C(C6=CC=C(C)S6)C7=NN(CC(CCCCCC)CCCCCCCC)N=C57)S4)S2)=C8C(SC(C)=C8)=C3C9=CC=C([Si](CCC)(CCC)CCC)S9)S1)CCC,139,56.2,2.47,1,1.5,CF,NA,NA,,,Energy Environ. Sci.,10.1039/c7ee00844a
353,158,2018,11.02,10.76,16,0.753,0.915,IDT6CN-M,5.68,3.92,1.76,CCCCCCC(C=C1)=CC=C1C2(C3=CC=C(CCCCCC)C=C3)C4=CC5=C(C(C6=C5SC7=C6SC(/C=C8C(C(C=CC(C)=C9)=C9C\8=C(C#N)\C#N)=O)=C7)(C%10=CC=C(CCCCCC)C=C%10)C%11=CC=C(CCCCCC)C=C%11)C=C4C%12=C2C=C(/C=C%13C(C(C=C(C)C=C%14)=C%14C\%13=C(C#N)/C#N)=O)S%12,1399.93,PBDB-T,5.21,3.41,1.8,CC(SC1=C2C3=CC=C(CC(CC)CCCC)S3)=CC1=C(C4=CC=C(CC(CC)CCCC)S4)C5=C2C=C(S5)C6=CC=C(C7=C8C(C(C9=C(CC(CC)CCCC)SC(CC(CC)CCCC)=C9C8=O)=O)=C(C%10=CC=C(C)S%10)S7)S6,117,58.5,2,1,1.2,CB,DIO,120,,,Energy Environ. Sci.,10.1039/c8ee00215k
354,158,2018,10.51,10.32,17.44,0.721,0.836,ITCPTC,5.64,3.98,1.66,CCCCCCC(C=C1)=CC=C1C2(C3=CC=C(CCCCCC)C=C3)C4=CC5=C(C(C6=C5SC7=C6SC(/C=C8C(C9=CSC=C9C\8=C(C#N)\C#N)=O)=C7)(C%10=CC=C(CCCCCC)C=C%10)C%11=CC=C(CCCCCC)C=C%11)C=C4C%12=C2C(SC(/C=C%13C(C%14=CSC=C%14C\%13=C(C#N)\C#N)=O)=C%15)=C%15S%12,1440,PBDB-T,5.21,3.41,1.8,CC(SC1=C2C3=CC=C(CC(CC)CCCC)S3)=CC1=C(C4=CC=C(CC(CC)CCCC)S4)C5=C2C=C(S5)C6=CC=C(C7=C8C(C(C9=C(CC(CC)CCCC)SC(CC(CC)CCCC)=C9C8=O)=O)=C(C%10=CC=C(C)S%10)S7)S6,117,58.5,2,1,1.2,CB,DIO,120,,,Energy Environ. Sci.,10.1039/c8ee00215k
355,159,2018,12.55,12.37,20.81,0.7093,0.85,MeIC1,5.59,3.89,1.7,CCCCCCC(C=C1)=CC=C1C(C2=C3SC(/C=C4C(C5=C(C)SC=C5C\4=C(C#N)\C#N)=O)=C2)(C6=CC=C(CCCCCC)C=C6)C7=C3C=C(C(C8=C9SC%10=C8SC%11=C%10SC(/C=C%12C(C%13=C(C)SC=C%13C\%12=C(C#N)\C#N)=O)=C%11)(C%14=CC=C(CCCCCC)C=C%14)C%15=CC=C(CCCCCC)C=C%15)C9=C7,1468.05,PBDB-T,5.33,3.53,1.8,CC(SC1=C2C3=CC=C(CC(CC)CCCC)S3)=CC1=C(C4=CC=C(CC(CC)CCCC)S4)C5=C2C=C(S5)C6=CC=C(C7=C8C(C(C9=C(CC(CC)CCCC)SC(CC(CC)CCCC)=C9C8=O)=O)=C(C%10=CC=C(C)S%10)S7)S6,117,58.5,2,1,1,CB,DIO,120,,,Energy Environ. Sci.,10.1039/c8ee01107a
356,159,2018,11.53,11.48,17.53,0.7311,0.9,INPIC-4F,5.42,3.94,1.48,CCCCCCC(C=C1)=CC=C1C2(C3=CC=C(CCCCCC)C=C3)C4=CC5=C(C(C6=C5SC7=C6N(CCCCCCCC)C8=C7SC(/C=C9C(C(C=C(F)C(F)=C%10)=C%10C\9=C(C#N)\C#N)=O)=C8)(C%11=CC=C(CCCCCC)C=C%11)C%12=CC=C(CCCCCC)C=C%12)C=C4C%13=C2C(N(CCCCCCCC)C%14=C%15SC(/C=C%16/C(C%17=C(C%16=O)C=C(F)C(F)=C%17)=C(C#N)\C#N)=C%14)=C%15S%13,1802.42,PBDB-T,5.33,3.53,1.8,CC(SC1=C2C3=CC=C(CC(CC)CCCC)S3)=CC1=C(C4=CC=C(CC(CC)CCCC)S4)C5=C2C=C(S5)C6=CC=C(C7=C8C(C(C9=C(CC(CC)CCCC)SC(CC(CC)CCCC)=C9C8=O)=O)=C(C%10=CC=C(C)S%10)S7)S6,117,58.5,2,1,1,CB,DIO,120,,,Energy Environ. Sci.,10.1039/c8ee01107a
357,160,2014,5.04,4.91,10.14,0.58,0.86,DBFI-T,5.8,3.8,2,O=C(N(CC(CCCCCCCCCC)CCCCCCCCCCCC)C1=O)C2=C(C1=CC=C3C4=NC5=C(C6=CC=C(C(C7=N8)=C9N=C(C%10=CC=C%11C(N(C%12=O)CC(CCCCCCCCCCCC)CCCCCCCCCC)=O)C(C%13=C%10C%11=C%12C=C%13)=NC9=C(C7=NC(C%14=C%15C%16=C%17C=C%14)=C8C%15=CC=C%16C(N(C%17=O)CC(CCCCCCCCCCCC)CCCCCCCCCC)=O)C%18=CC=CC=C%18)S6)C%19=NC%20=C%21C%22=C%23C(C%24=CC=C%23%20)=C(C(N(CC(CCCCCCCCCC)CCCCCCCCCCCC)C%24=O)=O)C=C%22)C3=C(C4=NC5=C(C%25=CC=CC=C%25)C%19=N%21)C=C2,2715.91,PSEHTT,5.1,3.3,1.8,CC1=CC(CC(CC)CCCC)=C(C2=NC(SC(C3=C(CC(CCCC)CC)C=C(C4=CC([Si](CC(CC)CCCC)(CC(CCCC)CC)C5=C6SC(C)=C5)=C6S4)S3)=N7)=C7S2)S1,132.21,33.9,3.9,1,2,CF,NA,175,,,J. Am. Chem. Soc.,10.1021/ja508472j
358,160,2014,1.44,1.39,3.16,0.49,0.94,BFI-P2,5.8,3.6,2.2,CCCCCCCCCCC(CN(C1=O)C(C2=CC=C3C4=C(C5=C3C2=C1C=C5)N=C6C(C7=CC=CC=C7)=C8N=C(C9=C%10C%11=C%12C=C9)C(C%10=CC=C%11C(N(C%12=O)CC(CCCCCCCCCCCC)CCCCCCCCCC)=O)=NC8=C(C%13=CC=CC=C%13)C6=N4)=O)CCCCCCCCCCCC,1394,PSEHTT,5.1,3.3,1.8,CC1=CC(CC(CC)CCCC)=C(C2=NC(SC(C3=C(CC(CCCC)CC)C=C(C4=CC([Si](CC(CC)CCCC)(CC(CCCC)CC)C5=C6SC(C)=C5)=C6S4)S3)=N7)=C7S2)S1,132.21,33.9,3.9,1,4,CF,NA,175,,,J. Am. Chem. Soc.,10.1021/ja508472j
359,161,2014,0.65,0.58,1.51,0.3929,1.076,hexyl-PDI,5.9,3.83,2.07,O=C(N(CCCCCCCC)C1=O)C2=C(CCCCCC)C=C(C3=C4C=C(CCCCCC)C1C32)C5=CC(CCCCCC)=C6C7=C5C4=CC(CCCCCC)=C7C(N(CCCCCCCC)C6=O)=O,953.45,PBTI3T,5.58,3.77,1.81,O=C(N(CC(CCCC)CCCCCC)C(C1=C2SC(C3=C(CCCCCCCCCCCC)C=C(C4=CC=C(C5=CC(CCCCCCCCCCCC)=C(C)S5)S4)S3)=C1)=O)C6=C2SC(C)=C6,62,31,2,1,1,CF,NA,NA,60,,J. Am. Chem. Soc.,10.1021/ja508814z
360,161,2014,1.2,1.15,2.44,0.4848,1.016,Phenetyl-PDI,5.92,3.91,2.01,O=C(N(CCCCCCCC)C1=O)C2=C(CCC3=CC=CC=C3)C=C(C4=C5C=C(CCC6=CC=CC=C6)C1C42)C7=CC(CCC8=CC=CC=C8)=C9C%10=C7C5=CC(CCC%11=CC=CC=C%11)=C%10C(N(CCCCCCCC)C9=O)=O,1033.41,PBTI3T,5.58,3.77,1.81,O=C(N(CC(CCCC)CCCCCC)C(C1=C2SC(C3=C(CCCCCCCCCCCC)C=C(C4=CC=C(C5=CC(CCCCCCCCCCCC)=C(C)S5)S4)S3)=C1)=O)C6=C2SC(C)=C6,62,31,2,1,1,CF,NA,NA,60,,J. Am. Chem. Soc.,10.1021/ja508814z
361,161,2014,3.67,3.6,6.56,0.5459,1.024,Phenyl-PDI,6.02,4.01,2.01,O=C(N(CCCCCCCC)C1=O)C2=C(C3=CC=CC=C3)C=C(C4=C5C=C(C6=CC=CC=C6)C1C42)C7=CC(C8=CC=CC=C8)=C9C%10=C7C5=CC(C%11=CC=CC=C%11)=C%10C(N(CCCCCCCC)C9=O)=O,921.19,PBTI3T,5.58,3.77,1.81,O=C(N(CC(CCCC)CCCCCC)C(C1=C2SC(C3=C(CCCCCCCCCCCC)C=C(C4=CC=C(C5=CC(CCCCCCCCCCCC)=C(C)S5)S4)S3)=C1)=O)C6=C2SC(C)=C6,62,31,2,1,1,CF,NA,NA,60,,J. Am. Chem. Soc.,10.1021/ja508814z
362,162,2015,4.11,4.11,7.95,0.63,0.82,FBR,5.83,3.7,2.13,S=C(S/1)N(CC)C(C1=C/C2=CC=C(C3=CC(C4(CCCCCCCC)CCCCCCCC)=C(C=C3)C(C4=C5)=CC=C5C(C6=NSN=C67)=CC=C7/C=C8SC(N(C/8=O)CC)=S)C9=NSN=C29)=O,1001.43,P3HT,5,3.1,1.9,CC1=CC(CCCCCC)=C(C)S1,21.1,11.6,1.82,1,1,CF/DCB,NA,110,80,,J. Am. Chem. Soc.,10.1021/ja5110602
363,163,2015,7.16,6.9,11.65,0.655,0.9,SdiPBI-S,6.05,3.85,2.2,O=C(N(C(CCCCC)CCCCC)C1=O)C2=CCC(C3=C4C5=CC1=C32)=C6C(C7=CC8=C9C%10=C7C%11=CC=C(C(N%12C(CCCCC)CCCCC)=O)C%13=C%11C(C%10=C%14C=C9C(N(C(CCCCC)CCCCC)C8=O)=O)=C(S%14)C=C%13C%12=O)C=C%15C%16=C6C4=C(S5)C=C%16C(N(C(CCCCC)CCCCC)C%15=O)=O,1457.98,PDBT-T1,5.36,3.43,1.93,CC1=CC=C(C(S2)=C3C(C(C4=C(CC(CCCC)CC)SC(CC(CCCC)CC)=C4C3=O)=O)=C2C5=CC=C(C6=CC7=C(C8=C(C9=CC=C(CCCCCCCC)S9)C(SC%10=C%11SC(C)=C%10)=C%11C(C%12=CC=C(CCCCCCCC)S%12)=C8S7)S6)S5)S1,342,195.4285714,1.75,1,1,CB,DIO,100,,,J. Am. Chem. Soc.,10.1021/jacs.5b06414
364,164,2016,8.42,8.23,12.48,0.697,0.947,SdiPBI-Se,6.09,3.87,2.22,O=C(N(C(CCCCCC)CCCCCC)C1=O)C2=CCC(C3=C4C5=CC1=C32)=C6C(C7=CC8=C9C%10=C7C%11=CC=C(C(N%12C(CCCCCC)CCCCCC)=O)C%13=C%11C(C%10=C%14C=C9C(N(C(CCCCCC)CCCCCC)C8=O)=O)=C([Se]%14)C=C%13C%12=O)C=C%15C%16=C6C4=C([Se]5)C=C%16C(N(C(CCCCCC)CCCCCC)C%15=O)=O,1664,PDBT-T1,5.36,3.43,1.93,CC1=CC=C(C(S2)=C3C(C(C4=C(CC(CCCC)CC)SC(CC(CCCC)CC)=C4C3=O)=O)=C2C5=CC=C(C6=CC7=C(C8=C(C9=CC=C(CCCCCCCC)S9)C(SC%10=C%11SC(C)=C%10)=C%11C(C%12=CC=C(CCCCCCCC)S%12)=C8S7)S6)S5)S1,342,195.4285714,1.75,1,1,DCB,DIO,NA,110,,J. Am. Chem. Soc.,10.1021/jacs.5b11149
365,165,2016,5.51,5.26,13.11,0.578,0.73,ITIC,5.64,3.92,1.72,CCCCCCC(C=C1)=CC=C1C2(C3=CC=C(CCCCCC)C=C3)C4=CC5=C(C(C6=C5SC7=C6SC(/C=C8C(C(C=CC=C9)=C9C\8=C(C#N)\C#N)=O)=C7)(C%10=CC=C(CCCCCC)C=C%10)C%11=CC=C(CCCCCC)C=C%11)C=C4C%12=C2C(SC(/C=C%13C(C(C=CC=C%14)=C%14C\%13=C(C#N)/C#N)=O)=C%15)=C%15S%12,1427.96,J52,5.21,2.99,2.22,CC1=CC(C(S1)=C2C3=CC=C(CC(CC)CCCC)S3)=C(C4=C2C=C(C5=CC=C(C6=C(F)C(F)=C(C7=CC=C(C)S7)C8=NN(CC(CCCCCC)CCCCCCCC)N=C68)S5)S4)C9=CC=C(CC(CC)CCCC)S9,106.95,57.5,1.86,1,1,CF,NA,100,,,J. Am. Chem. Soc.,10.1021/jacs.6b01744
366,165,2016,8.97,8.67,16.33,0.6038,0.91,ITIC,5.64,3.92,1.72,CCCCCCC(C=C1)=CC=C1C2(C3=CC=C(CCCCCC)C=C3)C4=CC5=C(C(C6=C5SC7=C6SC(/C=C8C(C(C=CC=C9)=C9C\8=C(C#N)\C#N)=O)=C7)(C%10=CC=C(CCCCCC)C=C%10)C%11=CC=C(CCCCCC)C=C%11)C=C4C%12=C2C(SC(/C=C%13C(C(C=CC=C%14)=C%14C\%13=C(C#N)/C#N)=O)=C%15)=C%15S%12,1427.96,J60,5.32,3.08,2.24,CC1=CC(C(S1)=C2C3=CC=C(SCC(CC)CCCC)S3)=C(C4=C2C=C(C5=CC=C(C6=C(F)C(F)=C(C7=CC=C(C)S7)C8=NN(CC(CCCCCC)CCCCCCCC)N=C68)S5)S4)C9=CC=C(SCC(CC)CCCC)S9,53.058,23.9,2.22,1,1,CF,NA,100,,,J. Am. Chem. Soc.,10.1021/jacs.6b01744
367,165,2016,9.53,9.22,17.43,0.6148,0.89,ITIC,5.64,3.92,1.72,CCCCCCC(C=C1)=CC=C1C2(C3=CC=C(CCCCCC)C=C3)C4=CC5=C(C(C6=C5SC7=C6SC(/C=C8C(C(C=CC=C9)=C9C\8=C(C#N)\C#N)=O)=C7)(C%10=CC=C(CCCCCC)C=C%10)C%11=CC=C(CCCCCC)C=C%11)C=C4C%12=C2C(SC(/C=C%13C(C(C=CC=C%14)=C%14C\%13=C(C#N)/C#N)=O)=C%15)=C%15S%12,1427.96,J61,5.32,3.08,2.24,CC1=CC(C(S1)=C2C3=CC=C(SCCCCCCCCCCCC)S3)=C(C4=C2C=C(C5=CC=C(C6=C(F)C(F)=C(C7=CC=C(C)S7)C8=NN(CC(CCCCCC)CCCCCCCC)N=C68)S5)S4)C9=CC=C(SCCCCCCCCCCCC)S9,74.196,32.4,2.29,1,1,CF,NA,100,,,J. Am. Chem. Soc.,10.1021/jacs.6b01744
368,166,2016,10.57,10.28,17.97,0.6549,0.898,ITIC,5.54,3.84,1.7,CCCCCCC(C=C1)=CC=C1C2(C3=CC=C(CCCCCC)C=C3)C4=CC5=C(C(C6=C5SC7=C6SC(/C=C8C(C(C=CC=C9)=C9C\8=C(C#N)\C#N)=O)=C7)(C%10=CC=C(CCCCCC)C=C%10)C%11=CC=C(CCCCCC)C=C%11)C=C4C%12=C2C(SC(/C=C%13C(C(C=CC=C%14)=C%14C\%13=C(C#N)/C#N)=O)=C%15)=C%15S%12,1427.96,J61,5.32,3.08,2.24,CC1=CC(C(S1)=C2C3=CC=C(SCCCCCCCCCCCC)S3)=C(C4=C2C=C(C5=CC=C(C6=C(F)C(F)=C(C7=CC=C(C)S7)C8=NN(CC(CCCCCC)CCCCCCCC)N=C68)S5)S4)C9=CC=C(SCCCCCCCCCCCC)S9,74.196,32.4,2.29,1,1,CF,NA,130,,,J. Am. Chem. Soc.,10.1021/jacs.6b09110
369,166,2016,11.77,11.49,18.31,0.7055,0.912,m-ITIC,5.52,3.82,1.7,O=C(C(C=CC=C1)=C1C/2=C(C#N)\C#N)C2=C/C3=CC(S4)=C(S3)C5=C4C6=CC(C(C7=C8SC9=C7SC(/C=C%10C(C(C=CC=C%11)=C%11C\%10=C(C#N)\C#N)=O)=C9)(C%12=CC=CC(CCCCCC)=C%12)C%13=CC(CCCCCC)=CC=C%13)=C8C=C6C(C%14=CC(CCCCCC)=CC=C%14)5C%15=CC=CC(CCCCCC)=C%15,1427.96,J61,5.32,3.08,2.24,CC1=CC(C(S1)=C2C3=CC=C(SCCCCCCCCCCCC)S3)=C(C4=C2C=C(C5=CC=C(C6=C(F)C(F)=C(C7=CC=C(C)S7)C8=NN(CC(CCCCCC)CCCCCCCC)N=C68)S5)S4)C9=CC=C(SCCCCCCCCCCCC)S9,74.196,32.4,2.29,1,1,CF,NA,130,,,J. Am. Chem. Soc.,10.1021/jacs.6b09110
370,167,2016,10.07,9.89,16.48,0.7,0.87,ATT-1,5.5,3.63,1.87,O=C(N(CC)/C(S/1)=C(C#N)\C#N)C1=C\C(S2)=C(SC(C(OCCCCCCCC)=O)=C3)C3=C2C(S4)=CC5=C4C6=CC(C(C7=CC=C(CCCCCC)C=C7)(C8=CC=C(CCCCCC)C=C8)C9=C%10SC(C%11=C%12C(SC(C(OCCCCCCCC)=O)=C%12)=C(/C=C%13S/C(N(C\%13=O)CC)=C(C#N)/C#N)S%11)=C9)=C%10C=C6C5(C%14=CC=C(CCCCCC)C=C%14)C%15=CC=C(CCCCCC)C=C%15,1902.71,PTB7-Th,5.39,3.79,1.6,O=C(OCC(CC)CCCC)C1=C(F)C2=C(C)SC(C3=CC4=C(C(C5=CC=C(CC(CC)CCCC)S5)=C(C=C(C)S6)C6=C4C7=CC=C(CC(CC)CCCC)S7)S3)=C2S1,124,72.9,1.7,1,1.5,CB,DIO,NA,130,,J. Am. Chem. Soc.,10.1021/jacs.6b08523
371,168,2017,10.15,10.15,17.85,0.672,0.868,NFBDT,5.4,3.83,1.57,O=C1C2=C(C(/C1=C/C(S3)=CC4=C3C5=C(C4(C6=CC=C(CCCCCC)C=C6)C7=CC=C(CCCCCC)C=C7)C8=CC(SC9=C%10C(C%11=CC=C(CCCCCC)C=C%11)(C%12=CC=C(CCCCCC)C=C%12)C%13=C9SC(/C=C%14C(C(C=CC=C%15)=C%15C\%14=C(C#N)\C#N)=O)=C%13)=C%10C=C8S5)=C(C#N)/C#N)C=CC=C2,1427.96,PBDB-T,5.33,2.92,2.41,CC(SC1=C2C3=CC=C(CC(CC)CCCC)S3)=CC1=C(C4=CC=C(CC(CC)CCCC)S4)C5=C2C=C(S5)C6=CC=C(C7=C8C(C(C9=C(CC(CC)CCCC)SC(CC(CC)CCCC)=C9C8=O)=O)=C(C%10=CC=C(C)S%10)S7)S6,117,58.5,2,1,0.8,CF,NA,NA,100,,J. Am. Chem. Soc.,10.1021/jacs.7b01170
372,169,2017,11.6,11.2,16.26,0.636,1.08,O-IDTBR,5.51,3.88,1.63,O=C(/C(S1)=C/C(C2=NSN=C32)=CC=C3C(S4)=CC5=C4C6=CC(C(CCCCCCCC)(CCCCCCCC)C7=C8SC(C9=CC=C(/C=C%10SC(N(CC)C\%10=O)=S)C%11=NSN=C9%11)=C7)=C8C=C6C5(CCCCCCCC)CCCCCCCC)N(CC)C1=S,1326.02,PvBDTTAZ,5.47,3.42,2.05,FC(C(F)=C(C1=CC=C(C)S1)C2=NN(CCC)N=C32)=C3C4=C(CC(CCCCCCCCCC)CCCCCCCCCCCC)C=C(C5=C(C=CS6)C6=C(C7=CC(CC(CCCCCCCCCC)CCCCCCCCCCCC)=C(C)S7)C8=C5SC=C8)S4,138.288,68.8,2.01,1,1.5,TMB,NA,80,90,,J. Am. Chem. Soc.,10.1021/jacs.7b01606
373,170,2017,7.11,6.67,12.06,0.529,1.05,TTB-PDT4,5.92,3.68,2.24,O=C(N(C(CCCCCC)CCCCCC)C1=O)C2=CC(C(S3)=CC=C3C4=C(C5=CC=C(C6=CC7C8C9=C6C%10=CC=C(C(N%11C(CCCCCC)CCCCCC)=O)C%12=C%10C(C9=CC=C8C(N(C(CCCCCC)CCCCCC)C7=O)=O)=CC=C%12C%11=O)S5)C=C(C%13=CC=C(C(C=C%14C(N(C(CCCCCC)CCCCCC)C%15=O)=O)=C%16C%17=C%14C%15=CC=C%17C%18=CC=C(C%19=O)C%20C%18=C%16C=CC%20C(N%19C(CCCCCC)CCCCCC)=O)S%13)C(C%21=CC=C(C%22=CC%23C%24C%25=C%22C%26=CC=C(C(N%27C(CCCCCC)CCCCCC)=O)C%28=C%26C(C%25=CC=C%24C(N(C(CCCCCC)CCCCCC)C%23=O)=O)=CC=C%28C%27=O)S%21)=C4)=C(C%29=C%30C=CC1C%292)C%31=CC=C%32C%33=C%31C%30=CC=C%33C(N(C(CCCCCC)CCCCCC)C%32=O)=O,3426.82,P3TEA,5.46,3.66,1.8,FC(C(F)=C(C1=CC=C(S1)C)C2=NSN=C23)=C3C4=CC=C(C5=C(CC(CCCCCC)CCCCCCC)C=C(C6=C(C(OCC(CCCCCCCC)CCCCCCCCC)=O)C=C(C7=C(F)C(F)=C(C8=CC(C(OCC(CCCCCCCC)CCCCCCCCC)=O)=C(C9=CC(CC(CCCCCC)CCCCCCC)=C(C)S9)S8)C%10=NSN=C7%10)S6)S5)S4,207.2,103.5,2,1,1.5,TMB,NA,100,110,,J. Am. Chem. Soc.,10.1021/jacs.7b09998
374,170,2017,10.58,10.37,13.89,0.659,1.13,FTTB-PDI4,5.74,3.58,2.16,O=C(N(C(CCCCCC)CCCCCC)C1=O)C2=CC3=C(C4=C5C=CC1C42)C6=C(C7=C3SC(C8=C(C9=CC(C(C=C%10C(N(C(CCCCCC)CCCCCC)C%11=O)=O)=C%12C%13=C%10C%11=CC=C%13C%14=CC=C(C%15=O)C%16C%14=C%12C%17=CC%16C(N%15C(CCCCCC)CCCCCC)=O)=C%17S9)C=C(C%18=CC%19=C(C(C=C%20C(N(C(CCCCCC)CCCCCC)C%21=O)=O)=C%22C%23=C%20C%21=CC=C%23C%24=CC=C(C%25=O)C%26C%24=C%22C%19=CC%26C(N%25C(CCCCCC)CCCCCC)=O)S%18)C(C%27=CC(C(C=C%28C(N(C(CCCCCC)CCCCCC)C%29=O)=O)=C%30C%31=C%28C%29=CC=C%31C%32=CC=C(C%33=O)C%34C%32=C%30C%35=CC%34C(N%33C(CCCCCC)CCCCCC)=O)=C%35S%27)=C8)=C7)C=C%36C%37=C6C5=CC=C%37C(N(C(CCCCCC)CCCCCC)C%36=O)=O,3418.75,P3TEA,5.46,3.66,1.8,FC(C(F)=C(C1=CC=C(S1)C)C2=NSN=C23)=C3C4=CC=C(C5=C(CC(CCCCCC)CCCCCCC)C=C(C6=C(C(OCC(CCCCCCCC)CCCCCCCCC)=O)C=C(C7=C(F)C(F)=C(C8=CC(C(OCC(CCCCCCCC)CCCCCCCCC)=O)=C(C9=CC(CC(CCCCCC)CCCCCCC)=C(C)S9)S8)C%10=NSN=C7%10)S6)S5)S4,207.2,103.5,2,1,1.5,TMB,NA,100,110,,J. Am. Chem. Soc.,10.1021/jacs.7b09998
375,171,2017,8.3,8.3,17.5,0.596,0.81,BT-IC,5.32,3.85,1.47,O=C(C(C=CC=C1)=C1C/2=C(C#N)\C#N)C2=C/C3=CC(C4(C5=CC=C(CCCCCC)C=C5)C6=CC=C(CCCCCC)C=C6)=C(S3)C7=C4C8=C(OCC(CC)CCCC)C(SC9=C%10C(C%11=CC=C(CCCCCC)C=C%11)(C%12=CC=C(CCCCCC)C=C%12)C%13=C9SC(/C=C%14C(C(C=CC=C%15)=C%15C\%14=C(C#N)\C#N)=O)=C%13)=C%10C(OCC(CC)CCCCC)=C8S7,1698.41,PTB7-Th,5.22,3.64,1.58,O=C(OCC(CC)CCCC)C1=C(F)C2=C(C)SC(C3=CC4=C(C(C5=CC=C(CC(CC)CCCC)S5)=C(C=C(C)S6)C6=C4C7=CC=C(CC(CC)CCCC)S7)S3)=C2S1,124,72.9,1.7,1,1.5,CB/CF,NA,150,130,,J. Am. Chem. Soc.,10.1021/jacs.7b11278
376,171,2017,11.2,11.2,22.5,0.71,0.7,BT-CIC,5.49,4.09,1.4,O=C(C(C=C(Cl)C(Cl)=C1)=C1C/2=C(C#N)\C#N)C2=C/C3=CC(C4(C5=CC=C(CCCCCC)C=C5)C6=CC=C(CCCCCC)C=C6)=C(S3)C7=C4C8=C(OCC(CC)CCCC)C(SC9=C%10C(C%11=CC=C(CCCCCC)C=C%11)(C%12=CC=C(CCCCCC)C=C%12)C%13=C9SC(/C=C%14C(C(C=C(Cl)C(Cl)=C%15)=C%15C\%14=C(C#N)\C#N)=O)=C%13)=C%10C(OCC(CC)CCCCC)=C8S7,1836.18,PTB7-Th,5.22,3.64,1.58,O=C(OCC(CC)CCCC)C1=C(F)C2=C(C)SC(C3=CC4=C(C(C5=CC=C(CC(CC)CCCC)S5)=C(C=C(C)S6)C6=C4C7=CC=C(CC(CC)CCCC)S7)S3)=C2S1,124,72.9,1.7,1,1.5,CB/CF,NA,150,130,,J. Am. Chem. Soc.,10.1021/jacs.7b11278