ID,Ref,year,PCE_max(%),PCE_ave(%),Jsc(mA/cm2),FF,Voc(V),Nickname(n),-HOMO_n(eV),-LUMO_n(eV),Eg_n(eV),n(SMILES),M (g/mol),Nickname(p),-HOMO_p(eV),-LUMO_p(eV),Eg_p(eV),p(SMILES),Mw (kg/mol),Mn(kg/mol),PDI,p/n ratio (p),p/n ratio (n),Solvent,Additive,TA (oC),thick (nm),,Journal,DOI
188,75,2018,7.73,7.5,14.58,0.6791,0.78,Ph-DTDP-IC,5.53,4,1.53,CCCCCCC(C=C1)=CC=C1C(C2=CC=C(CCCCCC)C=C2)(O3)C4=CC(C5=C6C=C(/C=C7C(C(C=CC=C8)=C8C\7=C(C#N)\C#N)=O)S5)=C(C(C9=CC=C(CCCCCC)C=C9)(O6)C%10=CC=C(CCCCCC)C=C%10)C=C4C%11=C3C=C(/C=C%12C(C(C=CC=C%13)=C%13C\%12=C(C#N)/C#N)=O)S%11,1347.79,PBDB-T,5.21,3.41,1.8,CC(SC1=C2C3=CC=C(CC(CC)CCCC)S3)=CC1=C(C4=CC=C(CC(CC)CCCC)S4)C5=C2C=C(S5)C6=CC=C(C7=C8C(C(C9=C(CC(CC)CCCC)SC(CC(CC)CCCC)=C9C8=O)=O)=C(C%10=CC=C(C)S%10)S7)S6,117,58.5,2,1,1,DCB,DIO,NA,,,Adv. Funct. Mater.,10.1002/adfm.201705927
189,75,2018,9.21,8.88,17.31,0.5961,0.89,Ph-DTDP-TIC,5.33,3.89,1.44,CCCCCCC(C=C1)=CC=C1C(C2=CC=C(CCCCCC)C=C2)(O3)C4=CC(C5=C6C=C(C7=CC=C(/C=C8C(C(C=CC=C9)=C9C/8=C(C#N)/C#N)=O)S7)S5)=C(C(C%10=CC=C(CCCCCC)C=C%10)(O6)C%11=CC=C(CCCCCC)C=C%11)C=C4C%12=C3C=C(C%13=CC=C(C=C%14C(C(C=CC=C%15)=C%15/C%14=C(C#N)\C#N)=O)S%13)S%12,1512.03,PBDB-T,5.21,3.41,1.8,CC(SC1=C2C3=CC=C(CC(CC)CCCC)S3)=CC1=C(C4=CC=C(CC(CC)CCCC)S4)C5=C2C=C(S5)C6=CC=C(C7=C8C(C(C9=C(CC(CC)CCCC)SC(CC(CC)CCCC)=C9C8=O)=O)=C(C%10=CC=C(C)S%10)S7)S6,117,58.5,2,1,1,DCB,CN,NA,,,Adv. Funct. Mater.,10.1002/adfm.201705927
190,75,2018,4.02,3.86,10.58,0.4213,0.9,Ph-DTDP-TITC,5.28,3.92,1.36,CCCCCCC(C=C1)=CC=C1C(C2=CC=C(CCCCCC)C=C2)(O3)C4=CC(C5=C6C=C(C7=CC8=C(C=C(C=C9C(C(C=CC=C%10)=C%10/C9=C(C#N)/C#N)=O)S8)S7)S5)=C(C(C%11=CC=C(CCCCCC)C=C%11)(O6)C%12=CC=C(CCCCCC)C=C%12)C=C4C%13=C3C=C(C%14=CC%15=C(C=C(/C=C%16C(C(C=CC=C%17)=C%17C\%16=C(C#N)/C#N)=O)S%15)S%14)S%13,1624.19,PBDB-T,5.21,3.41,1.8,CC(SC1=C2C3=CC=C(CC(CC)CCCC)S3)=CC1=C(C4=CC=C(CC(CC)CCCC)S4)C5=C2C=C(S5)C6=CC=C(C7=C8C(C(C9=C(CC(CC)CCCC)SC(CC(CC)CCCC)=C9C8=O)=O)=C(C%10=CC=C(C)S%10)S7)S6,117,58.5,2,1,1,DCB,CN,NA,,,Adv. Funct. Mater.,10.1002/adfm.201705927
191,76,2018,7.15,6.62,13.51,0.613,0.8,ITIC,5.48,3.83,1.65,CCCCCCC(C=C1)=CC=C1C2(C3=CC=C(CCCCCC)C=C3)C4=CC5=C(C(C6=C5SC7=C6SC(/C=C8C(C(C=CC=C9)=C9C\8=C(C#N)\C#N)=O)=C7)(C%10=CC=C(CCCCCC)C=C%10)C%11=CC=C(CCCCCC)C=C%11)C=C4C%12=C2C(SC(/C=C%13C(C(C=CC=C%14)=C%14C\%13=C(C#N)/C#N)=O)=C%15)=C%15S%12,1427.96,PBDT-FBT,5.14,3.35,1.79,CC1=CC(C(S1)=C2C3=CC=C(CC(CCCC)CCCCCC)S3)=C(C4=C2C=C(C5=C(CCCCCCCC)C=C(C6=C(F)C(F)=C(C7=CC(CCCCCCCC)=C(C)S7)C8=NSN=C68)S5)S4)C9=CC=C(CC(CCCC)CCCCCC)S9,49.3,28.5,1.73,1,1,CB,DIO,NA,99,,Adv. Funct. Mater.,10.1002/adfm.201706404
192,76,2018,8.58,8.02,14.44,0.638,0.87,ITIC,5.48,3.83,1.65,CCCCCCC(C=C1)=CC=C1C2(C3=CC=C(CCCCCC)C=C3)C4=CC5=C(C(C6=C5SC7=C6SC(/C=C8C(C(C=CC=C9)=C9C\8=C(C#N)\C#N)=O)=C7)(C%10=CC=C(CCCCCC)C=C%10)C%11=CC=C(CCCCCC)C=C%11)C=C4C%12=C2C(SC(/C=C%13C(C(C=CC=C%14)=C%14C\%13=C(C#N)/C#N)=O)=C%15)=C%15S%12,1427.96,PBDTS-FBT,5.2,3.4,1.8,CC1=CC(C(S1)=C2C3=CC=C(SCC(CCCC)CCCCCC)S3)=C(C4=C2C=C(C5=C(CCCCCCCC)C=C(C6=C(F)C(F)=C(C7=CC(CCCCCCCC)=C(C)S7)C8=NSN=C68)S5)S4)C9=CC=C(SCC(CCCC)CCCCCC)S9,49.2,28.1,1.75,1,1,CB,DIO,NA,104,,Adv. Funct. Mater.,10.1002/adfm.201706404
193,76,2018,9.17,8.74,15.22,0.645,0.89,ITIC,5.48,3.83,1.65,CCCCCCC(C=C1)=CC=C1C2(C3=CC=C(CCCCCC)C=C3)C4=CC5=C(C(C6=C5SC7=C6SC(/C=C8C(C(C=CC=C9)=C9C\8=C(C#N)\C#N)=O)=C7)(C%10=CC=C(CCCCCC)C=C%10)C%11=CC=C(CCCCCC)C=C%11)C=C4C%12=C2C(SC(/C=C%13C(C(C=CC=C%14)=C%14C\%13=C(C#N)/C#N)=O)=C%15)=C%15S%12,1427.96,PBDTF-BT,5.34,3.52,1.82,CC1=CC(C(S1)=C2C3=CC(F)=C(CC(CCCC)CCCCCC)S3)=C(C4=C2C=C(C5=C(CCCCCCCC)C=C(C6=C(F)C(F)=C(C7=CC(CCCCCCCC)=C(C)S7)C8=NSN=C68)S5)S4)C9=CC(F)=C(CC(CCCC)CCCCCC)S9,48,27.2,1.76,1,1,CB,DIO,NA,107,,Adv. Funct. Mater.,10.1002/adfm.201706404
194,76,2018,11.66,11.12,16.88,0.652,1.01,ITIC,5.48,3.83,1.65,CCCCCCC(C=C1)=CC=C1C2(C3=CC=C(CCCCCC)C=C3)C4=CC5=C(C(C6=C5SC7=C6SC(/C=C8C(C(C=CC=C9)=C9C\8=C(C#N)\C#N)=O)=C7)(C%10=CC=C(CCCCCC)C=C%10)C%11=CC=C(CCCCCC)C=C%11)C=C4C%12=C2C(SC(/C=C%13C(C(C=CC=C%14)=C%14C\%13=C(C#N)/C#N)=O)=C%15)=C%15S%12,1427.96,PBDTSF-FBT,5.41,3.6,1.81,CC1=CC(C(S1)=C2C3=CC(F)=C(SCC(CCCC)CCCCCC)S3)=C(C4=C2C=C(C5=C(CCCCCCCC)C=C(C6=C(F)C(F)=C(C7=CC(CCCCCCCC)=C(C)S7)C8=NSN=C68)S5)S4)C9=CC(F)=C(SCC(CCCC)CCCCCC)S9,49.5,28.1,1.76,1,1,CB,DIO,NA,109,,Adv. Funct. Mater.,10.1002/adfm.201706404
195,77,2018,9.35,9.16,15.3,0.657,0.93,ITIC,5.51,3.84,1.67,CCCCCCC(C=C1)=CC=C1C2(C3=CC=C(CCCCCC)C=C3)C4=CC5=C(C(C6=C5SC7=C6SC(/C=C8C(C(C=CC=C9)=C9C\8=C(C#N)\C#N)=O)=C7)(C%10=CC=C(CCCCCC)C=C%10)C%11=CC=C(CCCCCC)C=C%11)C=C4C%12=C2C(SC(/C=C%13C(C(C=CC=C%14)=C%14C\%13=C(C#N)/C#N)=O)=C%15)=C%15S%12,1427.96,PBDT-2TC,5.43,3.57,1.86,CC(SC1=C2C3=CC=C(CC(CC)CCCC)S3)=CC1=C(C4=CC=C(CC(CC)CCCC)S4)C5=C2C=C(S5)C6=CC(C(OCC(CCCC)CCCCCC)=O)=C(C7=CC=C(C)S7)S6,307.8,114,2.7,1,1,TMB,NA,120,110,,Adv. Funct. Mater.,10.1002/adfm.201706517
196,77,2018,10.12,9.75,16.4,0.643,0.96,ITIC,5.51,3.84,1.67,CCCCCCC(C=C1)=CC=C1C2(C3=CC=C(CCCCCC)C=C3)C4=CC5=C(C(C6=C5SC7=C6SC(/C=C8C(C(C=CC=C9)=C9C\8=C(C#N)\C#N)=O)=C7)(C%10=CC=C(CCCCCC)C=C%10)C%11=CC=C(CCCCCC)C=C%11)C=C4C%12=C2C(SC(/C=C%13C(C(C=CC=C%14)=C%14C\%13=C(C#N)/C#N)=O)=C%15)=C%15S%12,1427.96,PBDT-S-2TC,5.47,3.58,1.89,CC(SC1=C2C3=CC=C(SCC(CC)CCCC)S3)=CC1=C(C4=CC=C(SCC(CC)CCCC)S4)C5=C2C=C(S5)C6=CC(C(OCC(CCCC)CCCCCC)=O)=C(C7=CC=C(C)S7)S6,197.6,104,1.9,1,1,TMB,NA,120,110,,Adv. Funct. Mater.,10.1002/adfm.201706517
197,78,2018,8.29,8.02,13.75,0.635,0.95,para-TrBRCN,5.98,3.71,2.27,O=C(/C(S/1)=C/C2=CC=C(C(C=C3)=CC4=C3C5=C(C4(CCCC)CCCC)C6=C(C(CCCC)(CCCC)C7=C6C=CC(C8=CC=C(/C=C9S/C(N(CC)C\9=O)=C(C#N)\C#N)C%10=NSN=C8%10)=C7)C%11=C5C(CCCC)(CCCC)C%12=C%11C=CC(C%13=CC=C(/C=C%14S/C(N(CC)C\%14=O)=C(C#N)\C#N)C%15=NSN=C%13%15)=C%12)C%16=NSN=C2%16)N(CC)C1=C(C#N)\C#N,1691.21,PTB7-Th,5.27,3.55,1.72,O=C(OCC(CC)CCCC)C1=C(F)C2=C(C)SC(C3=CC4=C(C(C5=CC=C(CC(CC)CCCC)S5)=C(C=C(C)S6)C6=C4C7=CC=C(CC(CC)CCCC)S7)S3)=C2S1,124,72.9,1.7,1,1.25,CB,DIO,NA,100,,Adv. Funct. Mater.,10.1002/adfm.201707493
198,78,2018,10.15,9.92,16.75,0.645,0.94,meta-TrBRCN,5.95,3.73,2.22,CCCCC(C1=C2C=C(C3=CC=C(/C=C4S/C(N(CC)C\4=O)=C(C#N)\C#N)C5=NSN=C35)C=C1)(CCCC)C6=C2C(C(CCCC)(CCCC)C7=C8C=C(C9=CC=C(/C=C%10S/C(N(CC)C\%10=O)=C(C#N)\C#N)C%11=NSN=C9%11)C=C7)=C8C(C%12(CCCC)CCCC)=C6C%13=C%12C=CC(C%14=CC=C(/C=C%15S/C(N(CC)C\%15=O)=C(C#N)\C#N)C%16=NSN=C%14%16)=C%13,1691.21,PTB7-Th,5.27,3.55,1.72,O=C(OCC(CC)CCCC)C1=C(F)C2=C(C)SC(C3=CC4=C(C(C5=CC=C(CC(CC)CCCC)S5)=C(C=C(C)S6)C6=C4C7=CC=C(CC(CC)CCCC)S7)S3)=C2S1,124,72.9,1.7,1,1.25,CB,DIO,NA,100,,Adv. Funct. Mater.,10.1002/adfm.201707493
199,79,2011,1.7,1.7,3.9,0.4,1.1,D99'BF,5.3,3.12,2.18,COC1=CC(C2C3C=CC(OC)=C2)=C(/C3=C4C(C=C(C=CC=C5)C5=C6)=C6C7=C/4C=C8C(C=CC=C8)=C7)C=C1,490.6,P3HT,4.9,3,1.9,CC1=CC(CCCCCC)=C(C)S1,21.1,11.6,1.82,1,1.5,DCB,NA,NA,100,,Adv. Mater.,10.1002/adma.201003768
200,80,2012,1.86,1.86,4.4,0.56,0.76,FFI-1,6.1,3.5,2.6,O=C1N(CCCCCCCC)C(C2=C1C(C3=CC=CS3)=C(C4=C5C6=CC=CC5=C(C#N)C=C4)C6=C2C7=CC=CS7)=O,572.74,P3HT,4.9,3,1.9,CC1=CC(CCCCCC)=C(C)S1,21.1,11.6,1.82,1,2,DCB,NA,100,,,Adv. Mater.,10.1002/adma.201103927
201,81,2014,3.32,3.22,11.97,0.336,0.87,S(TPA-PDI),5.4,3.7,1.7,O=C(N(CC(CC)CCCC)C1=O)C2=CC(C3=CC(N(C4=CC=C(C5=C(C6=CC=C(C7=O)C8C6=C9C=CC8C(N7CC(CC)CCCC)=O)C(C9=CC=C%10C(N(CC(CC)CCCC)C%11=O)=O)=C%10C%11=C5)C=C4)C%12=CC=C(C(C=C%13C(N(CC(CC)CCCC)C%14=O)=O)=C%15C%16=C%13C%14=CC=C%16C%17=CC=C(C%18=O)C%19C%17=C%15C=CC%19C(N%18CC(CC)CCCC)=O)C=C%12)=CC=C3)=C(C%20=C%21C=CC1C%202)C%22=CC=C%23C%24=C%22C%21=CC=C%24C(N(CC(CC)CCCC)C%23=O)=O,2089.68,PBDTTT-C-T,5.11,3.25,1.86,O=C(C1=CC2=C(SC(C3=CC4=C(S3)C(C5=CC=C(S5)CC(CCCC)CC)=C6C=C(SC6=C4C7=CC=C(S7)CC(CCCC)CC)C)=C2S1)C)CC(CC)CCCC,56,20,2.8,1,1,CB,DIO,NA,100,,Adv. Mater.,10.1002/adma.201400525
202,82,2014,1.39,1.32,2.8,0.6,0.82,Zn(ADP)2,5.5,3.68,1.82,C12=C(C3=CC=CC=C3)C=C(C4=CC=CC=C4)N1[Zn]5(N6C(C7=CC=CC=C7)=CC(C8=CC=CC=C8)=C6N=C9[N]5=C(C%10=CC=CC=C%10)C=C9C%11=CC=CC=C%11)[N]%12=C(C%13=CC=CC=C%13)C=C(C%14=CC=CC=C%14)C%12=N2,962.48,P3HT,4.9,3,1.9,CC1=CC(CCCCCC)=C(C)S1,21.1,11.6,1.82,1,0.7,DCB,NA,100,90,,Adv. Mater.,10.1002/adma.201400647
203,82,2014,4.1,3.9,9.1,0.59,0.77,Zn(WS3)2,5.6,3.85,1.75,C12=C(C3=CC=CC=C3)C(C#CC4=CC=CC=C4)=C(C5=CC=CC=C5)N1[Zn]6(N7C(C8=CC=CC=C8)=C(C#CC9=CC=CC=C9)C(C%10=CC=CC=C%10)=C7N=C%11[N]6=C(C%12=CC=CC=C%12)C(C#CC%13=CC=CC=C%13)=C%11C%14=CC=CC=C%14)[N]%15=C(C%16=CC=CC=C%16)C(C#CC%17=CC=CC=C%17)=C(C%18=CC=CC=C%18)C%15=N2,1362.96,P3HT,4.9,3,1.9,CC1=CC(CCCCCC)=C(C)S1,21.1,11.6,1.82,1,0.7,DCB,NA,100,90,,Adv. Mater.,10.1002/adma.201400647
204,83,2015,6.8,6.58,14.21,0.591,0.81,ITIC,5.48,3.83,1.65,CCCCCCC(C=C1)=CC=C1C2(C3=CC=C(CCCCCC)C=C3)C4=CC5=C(C(C6=C5SC7=C6SC(/C=C8C(C(C=CC=C9)=C9C\8=C(C#N)\C#N)=O)=C7)(C%10=CC=C(CCCCCC)C=C%10)C%11=CC=C(CCCCCC)C=C%11)C=C4C%12=C2C(SC(/C=C%13C(C(C=CC=C%14)=C%14C\%13=C(C#N)/C#N)=O)=C%15)=C%15S%12,1427.96,PTB7-Th,5.2,3.59,1.61,O=C(OCC(CC)CCCC)C1=C(F)C2=C(C)SC(C3=CC4=C(C(C5=CC=C(CC(CC)CCCC)S5)=C(C=C(C)S6)C6=C4C7=CC=C(CC(CC)CCCC)S7)S3)=C2S1,124,72.9,1.7,1,1.3,CF,NA,NA,,,Adv. Mater.,10.1002/adma.201404317
205,84,2015,6.37,6.18,12.56,0.55,0.92,DBFI-S,5.74,3.7,2.04,O=C(N(CC(CCCCCCCCCC)CCCCCCCCCCCC)C1=O)C2=C(C1=CC=C3C4=NC5=C(C6=CC=C(C(C7=N8)=C9N=C(C%10=CC=C%11C(N(C%12=O)CC(CCCCCCCCCCCC)CCCCCCCCCC)=O)C(C%13=C%10C%11=C%12C=C%13)=NC9=C(C7=NC(C%14=C%15C%16=C%17C=C%14)=C8C%15=CC=C%16C(N(C%17=O)CC(CCCCCCCCCCCC)CCCCCCCCCC)=O)C%18=CC=CC=C%18)[Se]6)C%19=NC%20=C%21C%22=C%23C(C%24=CC=C%23%20)=C(C(N(CC(CCCCCCCCCC)CCCCCCCCCCCC)C%24=O)=O)C=C%22)C3=C(C4=NC5=C(C%25=CC=CC=C%25)C%19=N%21)C=C2,2762.81,PSEHTT,5.1,3.3,1.8,CC1=CC(CC(CC)CCCC)=C(C2=NC(SC(C3=C(CC(CCCC)CC)C=C(C4=CC([Si](CC(CC)CCCC)(CC(CCCC)CC)C5=C6SC(C)=C5)=C6S4)S3)=N7)=C7S2)S1,132.21,33.9,3.9,1,0.5,CB,DIO,NA,,,Adv. Mater.,10.1002/adma.201500577
206,84,2015,2.61,2.36,5.61,0.57,0.82,DBFI-DMT,5.82,3.66,2.16,O=C(N(CC(CCCCCCCCCC)CCCCCCCCCCCC)C1=O)C2=C(C1=CC=C3C4=NC5=C(C6=C(C)C(C)=C(C(C7=N8)=C9N=C(C%10=CC=C%11C(N(C%12=O)CC(CCCCCCCCCCCC)CCCCCCCCCC)=O)C(C%13=C%10C%11=C%12C=C%13)=NC9=C(C7=NC(C%14=C%15C%16=C%17C=C%14)=C8C%15=CC=C%16C(N(C%17=O)CC(CCCCCCCCCCCC)CCCCCCCCCC)=O)C%18=CC=CC=C%18)S6)C%19=NC%20=C%21C%22=C%23C(C%24=CC=C%23%20)=C(C(N(CC(CCCCCCCCCC)CCCCCCCCCCCC)C%24=O)=O)C=C%22)C3=C(C4=NC5=C(C%25=CC=CC=C%25)C%19=N%21)C=C2,2743.96,PSEHTT,5.1,3.3,1.8,CC1=CC(CC(CC)CCCC)=C(C2=NC(SC(C3=C(CC(CCCC)CC)C=C(C4=CC([Si](CC(CC)CCCC)(CC(CCCC)CC)C5=C6SC(C)=C5)=C6S4)S3)=N7)=C7S2)S1,132.21,33.9,3.9,1,0.5,CB,DIO,NA,,,Adv. Mater.,10.1002/adma.201500577
207,84,2015,3.94,3.8,8.33,0.51,0.94,DBFI-MTT,5.76,3.67,2.09,O=C(N(CC(CCCCCCCCCC)CCCCCCCCCCCC)C1=O)C2=C(C1=CC=C3C4=NC5=C(C6=C(C)C(SC(C(C7=N8)=C9N=C(C%10=CC=C%11C(N(C%12=O)CC(CCCCCCCCCCCC)CCCCCCCCCC)=O)C(C%13=C%10C%11=C%12C=C%13)=NC9=C(C7=NC(C%14=C%15C%16=C%17C=C%14)=C8C%15=CC=C%16C(N(C%17=O)CC(CCCCCCCCCCCC)CCCCCCCCCC)=O)C%18=CC=CC=C%18)=C%19C)=C%19S6)C%20=NC%21=C%22C%23=C%24C(C%25=CC=C%24%21)=C(C(N(CC(CCCCCCCCCC)CCCCCCCCCCCC)C%25=O)=O)C=C%23)C3=C(C4=NC5=C(C%26=CC=CC=C%26)C%20=N%22)C=C2,2800.04,PSEHTT,5.1,3.3,1.8,CC1=CC(CC(CC)CCCC)=C(C2=NC(SC(C3=C(CC(CCCC)CC)C=C(C4=CC([Si](CC(CC)CCCC)(CC(CCCC)CC)C5=C6SC(C)=C5)=C6S4)S3)=N7)=C7S2)S1,132.21,33.9,3.9,1,0.5,CB,NA,175,,,Adv. Mater.,10.1002/adma.201500577
208,85,2015,7.3,7,12.2,0.59,0.998,IEIC,5.45,3.88,1.57,CCCCCCC(C=C1)=CC=C1C(C2=C3SC(C4=C(CC(CC)CCCC)C=C(/C=C5C(C(C=CC=C6)=C6C\5=C(C#N)\C#N)=O)S4)=C2)(C7=CC=C(CCCCCC)C=C7)C8=C3C=C(C(C9=C%10SC(C(S%11)=C(C=C%11/C=C%12/C(C%13=C(C%12=O)C=CC=C%13)=C(C#N)/C#N)CC(CC)CCCC)=C9)(C%14=CC=C(CCCCCC)C=C%14)C%15=CC=C(CCCCCC)C=C%15)C%10=C8,1704.46,PffT2-FTAZ-2DT,5.28,3.37,1.91,CC1=C(C=C(S1)C2=C(C(F)=C(C3=NN(CCC)N=C32)C4=CC(CC(CCCCCCCCCC)CCCCCCCCCCCC)=C(S4)C5=CC(F)=C(S5)C6=C(F)C=C(S6)C)F)CC(CCCCCCCCCCCC)CCCCCCCCCC,168,92,1.83,1,1.5,CB,NA,90,,,Adv. Mater.,10.1002/adma.201502775
209,86,2016,5.27,5.11,11.03,0.511,0.93,SF-PDI4,5.97,3.78,2.19,O=C(N(C(CCCCCC)CCCCCC)C1=O)C2=CC(C3=CC(C45C(C=C(C6=C(C7=C8C=CC9C7C(C(N(C(CCCCC)CCCCC)C9=O)=O)=C6)C%10=CC=C%11C%12=C%10C8=CC=C%12C(N(C(CCCCCC)CCCCCC)C%11=O)=O)C=C%13)C%13C%14=C4C=C(C%15=C(C%16=CC=C(C%17=O)C%18C%16=C%19C=CC%18C(N%17C(CCCCCC)CCCCCC)=O)C(C%19=CC=C%20C(N(C(CCCCCC)CCCCCC)C%21=O)=O)=C%20C%21=C%15)C=C%14)=C(C%22C5C=CC(C(C=C%23C(N(C(CCCCCC)CCCCCC)C%24=O)=O)=C%25C%26=C%23C%24=CC=C%26C%27=CC=C(C%28=O)C%29C%27=C%25C=CC%29C(N%28C(CCCCCC)CCCCCC)=O)=C%22)C=C3)=C(C%30=C%31C=CC1C%302)C%32=CC=C%33C%34=C%32C%31=CC=C%34C(N(C(CCCCCC)CCCCCC)C%33=O)=O,3312.61,PffBT4T-2DT,5.37,3.5,1.87,CC1=C(C=C(S1)C2=C(C(F)=C(C3=NSN=C32)C4=CC(CC(CCCCCCCCCC)CCCCCCCCCCCC)=C(S4)C5=CC=C(S5)C6=CC=C(S6)C)F)CC(CCCCCCCCCCCC)CCCCCCCCCC,140,70,2,1,0.8,CB,DIO,NA,,,Adv. Mater.,10.1002/adma.201504010
210,86,2016,5.98,5.82,12.02,0.542,0.9,SF-PDI4,5.97,3.78,2.19,O=C(N(C(CCCCCC)CCCCCC)C1=O)C2=CC(C3=CC(C45C(C=C(C6=C(C7=C8C=CC9C7C(C(N(C(CCCCC)CCCCC)C9=O)=O)=C6)C%10=CC=C%11C%12=C%10C8=CC=C%12C(N(C(CCCCCC)CCCCCC)C%11=O)=O)C=C%13)C%13C%14=C4C=C(C%15=C(C%16=CC=C(C%17=O)C%18C%16=C%19C=CC%18C(N%17C(CCCCCC)CCCCCC)=O)C(C%19=CC=C%20C(N(C(CCCCCC)CCCCCC)C%21=O)=O)=C%20C%21=C%15)C=C%14)=C(C%22C5C=CC(C(C=C%23C(N(C(CCCCCC)CCCCCC)C%24=O)=O)=C%25C%26=C%23C%24=CC=C%26C%27=CC=C(C%28=O)C%29C%27=C%25C=CC%29C(N%28C(CCCCCC)CCCCCC)=O)=C%22)C=C3)=C(C%30=C%31C=CC1C%302)C%32=CC=C%33C%34=C%32C%31=CC=C%34C(N(C(CCCCCC)CCCCCC)C%33=O)=O,3312.61,PV4T2FBT,5.27,3.51,1.76,CC1=C(CC(CCCCCCCCCC)CCCCCCCCCCCC)C=C(C2=C(F)C(F)=C(C3=CC(CC(CCCCCCCCCCCC)CCCCCCCCCC)=C(C4=CC=C(/C=C/C5=CC=C(C)S5)S4)S3)C6=NSN=C62)S1,140,70,2,1,0.8,CB,DIO,NA,,,Adv. Mater.,10.1002/adma.201504010
211,87,2016,8.1,7.85,13.82,0.63,0.93,DBFI-EDOT,5.76,3.65,2.11,O=C(N(CC(CCCCCCCCCC)CCCCCCCCCCCC)C1=O)C2=C(C1=CC=C3C4=NC5=C(C6=C(OCCO7)C7=C(C(C8=N9)=C%10N=C(C%11=CC=C%12C(N(C%13=O)CC(CCCCCCCCCCCC)CCCCCCCCCC)=O)C(C%14=C%11C%12=C%13C=C%14)=NC%10=C(C8=NC(C%15=C%16C%17=C%18C=C%15)=C9C%16=CC=C%17C(N(C%18=O)CC(CCCCCCCCCCCC)CCCCCCCCCC)=O)C%19=CC=CC=C%19)S6)C%20=NC%21=C%22C%23=C%24C(C%25=CC=C%24%21)=C(C(N(CC(CCCCCCCCCC)CCCCCCCCCCCC)C%25=O)=O)C=C%23)C3=C(C4=NC5=C(C%26=CC=CC=C%26)C%20=N%22)C=C2,2773.94,PSEHTT,5.1,3.3,1.8,CC1=CC(CC(CC)CCCC)=C(C2=NC(SC(C3=C(CC(CCCC)CC)C=C(C4=CC([Si](CC(CC)CCCC)(CC(CCCC)CC)C5=C6SC(C)=C5)=C6S4)S3)=N7)=C7S2)S1,132.21,33.9,3.9,1,0.5,CB,NA,175,110,,Adv. Mater.,10.1002/adma.201503801
212,87,2016,6.7,6.42,13.99,0.51,0.95,DBFI-EDOT,5.76,3.65,2.11,O=C(N(CC(CCCCCCCCCC)CCCCCCCCCCCC)C1=O)C2=C(C1=CC=C3C4=NC5=C(C6=C(OCCO7)C7=C(C(C8=N9)=C%10N=C(C%11=CC=C%12C(N(C%13=O)CC(CCCCCCCCCCCC)CCCCCCCCCC)=O)C(C%14=C%11C%12=C%13C=C%14)=NC%10=C(C8=NC(C%15=C%16C%17=C%18C=C%15)=C9C%16=CC=C%17C(N(C%18=O)CC(CCCCCCCCCCCC)CCCCCCCCCC)=O)C%19=CC=CC=C%19)S6)C%20=NC%21=C%22C%23=C%24C(C%25=CC=C%24%21)=C(C(N(CC(CCCCCCCCCC)CCCCCCCCCCCC)C%25=O)=O)C=C%23)C3=C(C4=NC5=C(C%26=CC=CC=C%26)C%20=N%22)C=C2,2773.94,PTB7-Th,5.2,3.59,1.61,O=C(OCC(CC)CCCC)C1=C(F)C2=C(C)SC(C3=CC4=C(C(C5=CC=C(CC(CC)CCCC)S5)=C(C=C(C)S6)C6=C4C7=CC=C(CC(CC)CCCC)S7)S3)=C2S1,124,72.9,1.7,1,0.4,CB,NA,175,110,,Adv. Mater.,10.1002/adma.201503801
213,88,2016,7.64,7.5,11.88,0.63,1.03,NIDCS-HO,5.79,3.75,2.04,O=C(N(CC(CC)CCCC)C1=O)C2=CC=CC3=C2C1=CC=C3C4=CC=C(/C(C#N)=C/C5=C(OCCCCCC)C=C(/C=C(C#N)/C(S6)=CC=C6C7=CC=C8C9=C7C=CC=C9C(N(CC(CC)CCCC)C8=O)=O)C(OCCCCCC)=C5)S4,1159.56,PPDT2FBT,5.43,3.67,1.76,FC(C(F)=C(C1=NSN=C12)C)=C2C(S3)=CC=C3C4=C(OCC(CCCCCC)CCCCCCCC)C=C(C5=CC=C(C)S5)C(OCC(CCCCCC)CCCCCCCC)=C4,100.8,48,2.1,1,0.4,CF,NA,90,,,Adv. Mater.,10.1002/adma.201504091
214,89,2016,11.21,10.68,16.81,0.742,0.899,ITIC,5.51,3.78,1.73,CCCCCCC(C=C1)=CC=C1C2(C3=CC=C(CCCCCC)C=C3)C4=CC5=C(C(C6=C5SC7=C6SC(/C=C8C(C(C=CC=C9)=C9C\8=C(C#N)\C#N)=O)=C7)(C%10=CC=C(CCCCCC)C=C%10)C%11=CC=C(CCCCCC)C=C%11)C=C4C%12=C2C(SC(/C=C%13C(C(C=CC=C%14)=C%14C\%13=C(C#N)/C#N)=O)=C%15)=C%15S%12,1427.96,PBDB-T,5.33,3.53,1.8,CC(SC1=C2C3=CC=C(CC(CC)CCCC)S3)=CC1=C(C4=CC=C(CC(CC)CCCC)S4)C5=C2C=C(S5)C6=CC=C(C7=C8C(C(C9=C(CC(CC)CCCC)SC(CC(CC)CCCC)=C9C8=O)=O)=C(C%10=CC=C(C)S%10)S7)S6,117,58.5,2,1,1,CB,DIO,NA,100,,Adv. Mater.,10.1002/adma.201600281
215,90,2016,9.26,9.07,16.47,0.69,0.82,ITIC,5.48,3.83,1.65,CCCCCCC(C=C1)=CC=C1C2(C3=CC=C(CCCCCC)C=C3)C4=CC5=C(C(C6=C5SC7=C6SC(/C=C8C(C(C=CC=C9)=C9C\8=C(C#N)\C#N)=O)=C7)(C%10=CC=C(CCCCCC)C=C%10)C%11=CC=C(CCCCCC)C=C%11)C=C4C%12=C2C(SC(/C=C%13C(C(C=CC=C%14)=C%14C\%13=C(C#N)/C#N)=O)=C%15)=C%15S%12,1427.96,J50,5.13,3.16,1.97,CC1=CC(C(S1)=C2C3=CC=C(CC(CCCCCC)CCCCCCCC)S3)=C(C4=C2C=C(C5=CC=C(C6=CC=C(C7=CC=C(C)S7)C8=NN(CCCCCCCC)N=C68)S5)S4)C9=CC=C(CC(CCCCCC)CCCCCCCC)S9,140,70,2,1,2,CF,NA,150,,,Adv. Mater.,10.1002/adma.201601595
216,90,2016,4.8,4.61,12.93,0.53,0.71,ITIC,5.48,3.83,1.65,CCCCCCC(C=C1)=CC=C1C2(C3=CC=C(CCCCCC)C=C3)C4=CC5=C(C(C6=C5SC7=C6SC(/C=C8C(C(C=CC=C9)=C9C\8=C(C#N)\C#N)=O)=C7)(C%10=CC=C(CCCCCC)C=C%10)C%11=CC=C(CCCCCC)C=C%11)C=C4C%12=C2C(SC(/C=C%13C(C(C=CC=C%14)=C%14C\%13=C(C#N)/C#N)=O)=C%15)=C%15S%12,1427.96,J51,5.26,3.08,2.18,CC1=CC(C(S1)=C2C3=CC=C(CC(CCCCCC)CCCCCCCC)S3)=C(C4=C2C=C(C5=CC=C(C6=C(F)C(F)=C(C7=CC=C(C)S7)C8=NN(CCCCCCCC)N=C68)S5)S4)C9=CC=C(CC(CCCCCC)CCCCCCCC)S9,140,70,2,1,2,CF,NA,150,,,Adv. Mater.,10.1002/adma.201601595
217,91,2016,12.05,11.48,17.44,0.735,0.94,IT-M,5.58,3.98,1.6,CCCCCCC(C=C1)=CC=C1C2(C3=CC=C(CCCCCC)C=C3)C4=CC5=C(C(C6=C5SC7=C6SC(/C=C8C(C(C=CC(C)=C9)=C9C\8=C(C#N)\C#N)=O)=C7)(C%10=CC=C(CCCCCC)C=C%10)C%11=CC=C(CCCCCC)C=C%11)C=C4C%12=C2C(SC(/C=C%13C(C(C=CC(C)=C%14)=C%14C\%13=C(C#N)/C#N)=O)=C%15)=C%15S%12,1456.01,PBDB-T,5.33,3.53,1.8,CC(SC1=C2C3=CC=C(CC(CC)CCCC)S3)=CC1=C(C4=CC=C(CC(CC)CCCC)S4)C5=C2C=C(S5)C6=CC=C(C7=C8C(C(C9=C(CC(CC)CCCC)SC(CC(CC)CCCC)=C9C8=O)=O)=C(C%10=CC=C(C)S%10)S7)S6,117,58.5,2,1,1,CB,DIO,160,,,Adv. Mater.,10.1002/adma.201602776
218,91,2016,11.29,10.79,16.48,0.706,0.97,IT-DM,5.56,3.93,1.63,CCCCCCC(C=C1)=CC=C1C2(C3=CC=C(CCCCCC)C=C3)C4=CC5=C(C(C6=C5SC7=C6SC(/C=C8C(C(C=C(C)C(C)=C9)=C9C\8=C(C#N)\C#N)=O)=C7)(C%10=CC=C(CCCCCC)C=C%10)C%11=CC=C(CCCCCC)C=C%11)C=C4C%12=C2C(SC(/C=C%13C(C(C=C(C)C(C)=C%14)=C%14C\%13=C(C#N)/C#N)=O)=C%15)=C%15S%12,1484.06,PBDB-T,5.33,3.53,1.8,CC(SC1=C2C3=CC=C(CC(CC)CCCC)S3)=CC1=C(C4=CC=C(CC(CC)CCCC)S4)C5=C2C=C(S5)C6=CC=C(C7=C8C(C(C9=C(CC(CC)CCCC)SC(CC(CC)CCCC)=C9C8=O)=O)=C(C%10=CC=C(C)S%10)S7)S6,117,58.5,2,1,1,CB,DIO,160,,,Adv. Mater.,10.1002/adma.201602776
219,92,2016,7.72,7.66,13,0.63,0.925,ITIC,5.51,3.78,1.73,CCCCCCC(C=C1)=CC=C1C2(C3=CC=C(CCCCCC)C=C3)C4=CC5=C(C(C6=C5SC7=C6SC(/C=C8C(C(C=CC=C9)=C9C\8=C(C#N)\C#N)=O)=C7)(C%10=CC=C(CCCCCC)C=C%10)C%11=CC=C(CCCCCC)C=C%11)C=C4C%12=C2C(SC(/C=C%13C(C(C=CC=C%14)=C%14C\%13=C(C#N)/C#N)=O)=C%15)=C%15S%12,1427.96,PPBDTBT,5.43,3.41,2.02,CC(SC1=C2C3=CC=C(C=C3)SCC(CCCC)CC)=CC1=C(C4=C2C=C(C5=CC=C(S5)C6=C(C(OCC(CCCCCCCCCCCC)CCCCCCCCCC)=C(C7=NSN=C67)C8=CC=C(C)S8)F)S4)C9=CC=C(C=C9)SCC(CCCC)CC,109,54.5,2,1,2,DCB,DIO,90,110,,Adv. Mater.,10.1002/adma.201603588
220,93,2016,6.09,6.09,10.23,0.54,1.11,SF(DPPB)4,5.6,3.5,2.1,O=C1C(C2=C(C3=CC=C(C4=CC=CC=C4)S3)N1CC(CC)CCCC)=C(C(S5)=CC=C5C6=CC7=C(C8C(C7(C9C%10C=CC(C%11=CC=C(C%12=C%13C(C(N%12CC(CC)CCCC)=O)=C(C%14=CC=C(C%15=CC=CC=C%15)S%14)N(CC(CC)CCCC)C%13=O)S%11)=C9)C%16=C%10C=CC(C%17=CC=C(C%18=C%19C(C(N%18CC(CC)CCCC)=O)=C(C%20=CC=C(C%21=CC=CC=C%21)S%20)N(CC(CC)CCCC)C%19=O)S%17)=C%16)C=C(C%22=CC=C(C%23=C%24C(C(N%23CC(CC)CCCC)=O)=C(C%25=CC=C(C%26=CC=CC=C%26)S%25)N(CC(CC)CCCC)C%24=O)S%22)C=C8)C=C6)N(CC(CC)CCCC)C2=O,2715.89,P3HT,5,3,2,CC1=CC(CCCCCC)=C(C)S1,21.1,11.6,1.82,1,0.5,CF,NA,NA,73,,Adv. Mater.,10.1002/adma.201603518
221,93,2016,6.31,6.31,14.22,0.47,0.95,IEIC,5.4,3.8,1.6,CCCCCCC(C=C1)=CC=C1C(C2=C3SC(C4=C(CC(CC)CCCC)C=C(/C=C5C(C(C=CC=C6)=C6C\5=C(C#N)\C#N)=O)S4)=C2)(C7=CC=C(CCCCCC)C=C7)C8=C3C=C(C(C9=C%10SC(C(S%11)=C(C=C%11/C=C%12/C(C%13=C(C%12=O)C=CC=C%13)=C(C#N)/C#N)CC(CC)CCCC)=C9)(C%14=CC=C(CCCCCC)C=C%14)C%15=CC=C(CCCCCC)C=C%15)C%10=C8,1704.46,PTB7-Th,5.2,3.6,1.6,O=C(OCC(CC)CCCC)C1=C(F)C2=C(C)SC(C3=CC4=C(C(C5=CC=C(CC(CC)CCCC)S5)=C(C=C(C)S6)C6=C4C7=CC=C(CC(CC)CCCC)S7)S3)=C2S1,124,72.9,1.7,1,1.5,CB,NA,NA,99,,Adv. Mater.,10.1002/adma.201603518
222,94,2016,8.15,8.12,12.64,0.682,0.942,SdiPBI-Se,6.09,3.87,2.22,O=C(N(C(CCCCCC)CCCCCC)C1=O)C2=CCC(C3=C4C5=CC1=C32)=C6C(C7=CC8=C9C%10=C7C%11=CC=C(C(N%12C(CCCCCC)CCCCCC)=O)C%13=C%11C(C%10=C%14C=C9C(N(C(CCCCCC)CCCCCC)C8=O)=O)=C([Se]%14)C=C%13C%12=O)C=C%15C%16=C6C4=C([Se]5)C=C%16C(N(C(CCCCCC)CCCCCC)C%15=O)=O,1664,PDBT-T1,5.36,3.43,1.93,CC1=CC=C(C(S2)=C3C(C(C4=C(CC(CCCC)CC)SC(CC(CCCC)CC)=C4C3=O)=O)=C2C5=CC=C(C6=CC7=C(C8=C(C9=CC=C(CCCCCCCC)S9)C(SC%10=C%11SC(C)=C%10)=C%11C(C%12=CC=C(CCCCCCCC)S%12)=C8S7)S6)S5)S1,342,195.4285714,1.75,1,1,DCB,DIO,NA,110,,Adv. Mater.,10.1002/adma.201602570