ID,Ref,year,PCE_max(%),PCE_ave(%),Jsc(mA/cm2),FF,Voc(V),Nickname(n),-HOMO_n(eV),-LUMO_n(eV),Eg_n(eV),n(SMILES),M (g/mol),Nickname(p),-HOMO_p(eV),-LUMO_p(eV),Eg_p(eV),p(SMILES),Mw (kg/mol),Mn(kg/mol),PDI,p/n ratio (p),p/n ratio (n),Solvent,Additive,TA (oC),thick (nm),,Journal,DOI
1039,468,2019,4.04,3.88,9.81,0.428,0.921,TBDB-Ph,5.44,3.74,1.7,O=C1C2=C(C=CC=C2)C(/C1=C\C3=CC(C(C4=CC=C(CCCCCC)C=C4)(C5=C6SC7=C(C(C=C8)=CC=C8SCC(CCCC)CC)C(C(S9)=C(C%10=C9C(SC(/C=C%11\C(C(C=CC=C%12)=C%12C%11=O)=C(C#N)/C#N)=C%13)=C%13C%10(C%14=CC=C(CCCCCC)C=C%14)C%15=CC=C(CCCCCC)C=C%15)S%16)=C%16C(C%17=CC=C(C=C%17)SCC(CC)CCCC)=C57)C%18=CC=C(CCCCCC)C=C%18)=C6S3)=C(C#N)\C#N,1924.79,PBDT-BZ,5.38,3.56,1.82,CC(SC1=C2C3=CC=C(SCC(CCCC)CCCCCC)S3)=CC1=C(C4=CC=C(SCC(CCCC)CCCCCC)S4)C5=C2C=C(C6=CC=C(C7=C(F)C(F)=C(C8=CC=C(C)S8)C9=NN(CC(CCCCCC)CCCCCCCC)N=C97)S6)S5,68.4,34.2,2,1,1,CB,NA,120,,,,
1040,468,2019,6.32,6.1,13.02,0.516,0.903,TBDB-Na,5.45,3.77,1.68,O=C1C2=C(C=C3C(C=CC=C3)=C2)C(/C1=C\C4=CC(C(C5=CC=C(CCCCCC)C=C5)(C6=C7SC8=C(C(C=C9)=CC=C9SCC(CCCC)CC)C(C(S%10)=C(C%11=C%10C(SC(/C=C%12\C(C(C=C%13C(C=CC=C%13)=C%14)=C%14C%12=O)=C(C#N)/C#N)=C%15)=C%15C%11(C%16=CC=C(CCCCCC)C=C%16)C%17=CC=C(CCCCCC)C=C%17)S%18)=C%18C(C%19=CC=C(C=C%19)SCC(CC)CCCC)=C68)C%20=CC=C(CCCCCC)C=C%20)=C7S4)=C(C#N)\C#N,2024.91,PBDT-BZ,5.38,3.56,1.82,CC(SC1=C2C3=CC=C(SCC(CCCC)CCCCCC)S3)=CC1=C(C4=CC=C(SCC(CCCC)CCCCCC)S4)C5=C2C=C(C6=CC=C(C7=C(F)C(F)=C(C8=CC=C(C)S8)C9=NN(CC(CCCCCC)CCCCCCCC)N=C97)S6)S5,68.4,34.2,2,1,1,CB,NA,120,,,,
1041,468,2019,9.26,9.04,16.54,0.585,0.926,BDTB-Ph,5.49,3.76,1.73,O=C1C2=C(C=CC=C2)C(/C1=C\C3=CC(C(C4=CC=C(CCCCCC)C=C4)(C5=C6SC7=C(C(C=C8)=CC=C8SCC(CCCC)CC)C9=C(C(C%10=CC=C(C=C%10)SCC(CC)CCCC)=C57)SC(C%11=C%12C=C(/C=C%13\C(C(C=CC=C%14)=C%14C%13=O)=C(C#N)/C#N)S%11)=C9C%12(C%15=CC=C(CCCCCC)C=C%15)C%16=CC=C(CCCCCC)C=C%16)C%17=CC=C(CCCCCC)C=C%17)=C6S3)=C(C#N)\C#N,1868.7,PTBD-BZ,5.4,3.59,1.81,CC(SC1=C2C3=CC=C(SCC(CCCC)CCCCCC)S3)=CC1=C(C4=CC=C(SCC(CCCC)CCCCCC)S4)C5=C2C(SC(C6=CC=C(C7=C(F)C(F)=C(C8=CC=C(C)S8)C9=NN(CC(CCCCCC)CCCCCCCC)N=C97)S6)=C%10)=C%10S5,78.4,39.2,2,1,1,CB,NA,SVA-CB,,,,
1042,468,2019,10.03,9.85,18.25,0.61,0.875,BDTB-Na,5.5,3.8,1.7,O=C1C2=C(C=C3C(C=CC=C3)=C2)C(/C1=C\C4=CC(C(C5=CC=C(CCCCCC)C=C5)(C6=C7SC8=C(C(C=C9)=CC=C9SCC(CCCC)CC)C%10=C(C(C%11=CC=C(C=C%11)SCC(CC)CCCC)=C68)SC(C%12=C%13C=C(/C=C%14\C(C(C=C%15C(C=CC=C%15)=C%16)=C%16C%14=O)=C(C#N)/C#N)S%12)=C%10C%13(C%17=CC=C(CCCCCC)C=C%17)C%18=CC=C(CCCCCC)C=C%18)C%19=CC=C(CCCCCC)C=C%19)=C7S4)=C(C#N)\C#N,1968.82,PTBD-BZ,5.4,3.59,1.81,CC(SC1=C2C3=CC=C(SCC(CCCC)CCCCCC)S3)=CC1=C(C4=CC=C(SCC(CCCC)CCCCCC)S4)C5=C2C(SC(C6=CC=C(C7=C(F)C(F)=C(C8=CC=C(C)S8)C9=NN(CC(CCCCCC)CCCCCCCC)N=C97)S6)=C%10)=C%10S5,78.4,39.2,2,1,1,CB,NA,SVA-CB,,,,
1043,468,2019,11.06,10.92,17.94,0.65,0.923,TBDB-Ph,5.44,3.74,1.7,O=C1C2=C(C=CC=C2)C(/C1=C\C3=CC(C(C4=CC=C(CCCCCC)C=C4)(C5=C6SC7=C(C(C=C8)=CC=C8SCC(CCCC)CC)C(C(S9)=C(C%10=C9C(SC(/C=C%11\C(C(C=CC=C%12)=C%12C%11=O)=C(C#N)/C#N)=C%13)=C%13C%10(C%14=CC=C(CCCCCC)C=C%14)C%15=CC=C(CCCCCC)C=C%15)S%16)=C%16C(C%17=CC=C(C=C%17)SCC(CC)CCCC)=C57)C%18=CC=C(CCCCCC)C=C%18)=C6S3)=C(C#N)\C#N,1924.79,PTBD-BZ,5.4,3.59,1.81,CC(SC1=C2C3=CC=C(SCC(CCCC)CCCCCC)S3)=CC1=C(C4=CC=C(SCC(CCCC)CCCCCC)S4)C5=C2C(SC(C6=CC=C(C7=C(F)C(F)=C(C8=CC=C(C)S8)C9=NN(CC(CCCCCC)CCCCCCCC)N=C97)S6)=C%10)=C%10S5,78.4,39.2,2,1,1,CB,NA,SVA-CB,,,,
1044,468,2019,12.47,12.25,19.5,0.692,0.905,TBDB-Na,5.45,3.77,1.68,O=C1C2=C(C=C3C(C=CC=C3)=C2)C(/C1=C\C4=CC(C(C5=CC=C(CCCCCC)C=C5)(C6=C7SC8=C(C(C=C9)=CC=C9SCC(CCCC)CC)C(C(S%10)=C(C%11=C%10C(SC(/C=C%12\C(C(C=C%13C(C=CC=C%13)=C%14)=C%14C%12=O)=C(C#N)/C#N)=C%15)=C%15C%11(C%16=CC=C(CCCCCC)C=C%16)C%17=CC=C(CCCCCC)C=C%17)S%18)=C%18C(C%19=CC=C(C=C%19)SCC(CC)CCCC)=C68)C%20=CC=C(CCCCCC)C=C%20)=C7S4)=C(C#N)\C#N,2024.91,PTBD-BZ,5.4,3.59,1.81,CC(SC1=C2C3=CC=C(SCC(CCCC)CCCCCC)S3)=CC1=C(C4=CC=C(SCC(CCCC)CCCCCC)S4)C5=C2C(SC(C6=CC=C(C7=C(F)C(F)=C(C8=CC=C(C)S8)C9=NN(CC(CCCCCC)CCCCCCCC)N=C97)S6)=C%10)=C%10S5,78.4,39.2,2,1,1,CB,NA,SVA-CB,,,,
1045,468,2019,6.5,6.19,13.2,0.539,0.883,BDTB-Ph,5.49,3.76,1.73,O=C1C2=C(C=CC=C2)C(/C1=C\C3=CC(C(C4=CC=C(CCCCCC)C=C4)(C5=C6SC7=C(C(C=C8)=CC=C8SCC(CCCC)CC)C9=C(C(C%10=CC=C(C=C%10)SCC(CC)CCCC)=C57)SC(C%11=C%12C=C(/C=C%13\C(C(C=CC=C%14)=C%14C%13=O)=C(C#N)/C#N)S%11)=C9C%12(C%15=CC=C(CCCCCC)C=C%15)C%16=CC=C(CCCCCC)C=C%16)C%17=CC=C(CCCCCC)C=C%17)=C6S3)=C(C#N)\C#N,1868.7,PDTBDT-BZ,5.32,3.51,1.81,CC(S1)=CC=C1C(C2=NN(CC(CCCCCC)CCCCCCCC)N=C23)=C(F)C(F)=C3C4=CC=C(C5=CC6=C(S5)C7=C(C(C8=CC=C(SCC(CCCC)CCCCCC)S8)=C9C(SC(C)=C%10)=C%10SC9=C7C%11=CC=C(SCC(CCCC)CCCCCC)S%11)S6)S4,70.6,35.3,2,1,1.25,CB,NA,120,,,,
1046,468,2019,4.95,4.7,12.72,0.432,0.863,BDTB-Na,5.5,3.8,1.7,O=C1C2=C(C=C3C(C=CC=C3)=C2)C(/C1=C\C4=CC(C(C5=CC=C(CCCCCC)C=C5)(C6=C7SC8=C(C(C=C9)=CC=C9SCC(CCCC)CC)C%10=C(C(C%11=CC=C(C=C%11)SCC(CC)CCCC)=C68)SC(C%12=C%13C=C(/C=C%14\C(C(C=C%15C(C=CC=C%15)=C%16)=C%16C%14=O)=C(C#N)/C#N)S%12)=C%10C%13(C%17=CC=C(CCCCCC)C=C%17)C%18=CC=C(CCCCCC)C=C%18)C%19=CC=C(CCCCCC)C=C%19)=C7S4)=C(C#N)\C#N,1968.82,PDTBDT-BZ,5.32,3.51,1.81,CC(S1)=CC=C1C(C2=NN(CC(CCCCCC)CCCCCCCC)N=C23)=C(F)C(F)=C3C4=CC=C(C5=CC6=C(S5)C7=C(C(C8=CC=C(SCC(CCCC)CCCCCC)S8)=C9C(SC(C)=C%10)=C%10SC9=C7C%11=CC=C(SCC(CCCC)CCCCCC)S%11)S6)S4,70.6,35.3,2,1,1.25,CB,NA,120,,,,
1047,468,2019,6.2,5.97,13.18,0.505,0.911,TBDB-Ph,5.44,3.74,1.7,O=C1C2=C(C=CC=C2)C(/C1=C\C3=CC(C(C4=CC=C(CCCCCC)C=C4)(C5=C6SC7=C(C(C=C8)=CC=C8SCC(CCCC)CC)C(C(S9)=C(C%10=C9C(SC(/C=C%11\C(C(C=CC=C%12)=C%12C%11=O)=C(C#N)/C#N)=C%13)=C%13C%10(C%14=CC=C(CCCCCC)C=C%14)C%15=CC=C(CCCCCC)C=C%15)S%16)=C%16C(C%17=CC=C(C=C%17)SCC(CC)CCCC)=C57)C%18=CC=C(CCCCCC)C=C%18)=C6S3)=C(C#N)\C#N,1924.79,PDTBDT-BZ,5.32,3.51,1.81,CC(S1)=CC=C1C(C2=NN(CC(CCCCCC)CCCCCCCC)N=C23)=C(F)C(F)=C3C4=CC=C(C5=CC6=C(S5)C7=C(C(C8=CC=C(SCC(CCCC)CCCCCC)S8)=C9C(SC(C)=C%10)=C%10SC9=C7C%11=CC=C(SCC(CCCC)CCCCCC)S%11)S6)S4,70.6,35.3,2,1,1.25,CB,NA,120,,,,
1048,468,2019,5.38,5.13,11.08,0.528,0.878,TBDB-Na,5.45,3.77,1.68,O=C1C2=C(C=C3C(C=CC=C3)=C2)C(/C1=C\C4=CC(C(C5=CC=C(CCCCCC)C=C5)(C6=C7SC8=C(C(C=C9)=CC=C9SCC(CCCC)CC)C(C(S%10)=C(C%11=C%10C(SC(/C=C%12\C(C(C=C%13C(C=CC=C%13)=C%14)=C%14C%12=O)=C(C#N)/C#N)=C%15)=C%15C%11(C%16=CC=C(CCCCCC)C=C%16)C%17=CC=C(CCCCCC)C=C%17)S%18)=C%18C(C%19=CC=C(C=C%19)SCC(CC)CCCC)=C68)C%20=CC=C(CCCCCC)C=C%20)=C7S4)=C(C#N)\C#N,2024.91,PDTBDT-BZ,5.32,3.51,1.81,CC(S1)=CC=C1C(C2=NN(CC(CCCCCC)CCCCCCCC)N=C23)=C(F)C(F)=C3C4=CC=C(C5=CC6=C(S5)C7=C(C(C8=CC=C(SCC(CCCC)CCCCCC)S8)=C9C(SC(C)=C%10)=C%10SC9=C7C%11=CC=C(SCC(CCCC)CCCCCC)S%11)S6)S4,70.6,35.3,2,1,1.25,CB,NA,120,,,,
1049,469,2019,9.3,9.2,15.7,0.66,0.88,ITIC,5.51,3.78,1.73,CCCCCCC(C=C1)=CC=C1C2(C3=CC=C(CCCCCC)C=C3)C4=CC5=C(C(C6=C5SC7=C6SC(/C=C8C(C(C=CC=C9)=C9C\8=C(C#N)\C#N)=O)=C7)(C%10=CC=C(CCCCCC)C=C%10)C%11=CC=C(CCCCCC)C=C%11)C=C4C%12=C2C(SC(/C=C%13C(C(C=CC=C%14)=C%14C\%13=C(C#N)/C#N)=O)=C%15)=C%15S%12,1427.96,PBDB-T,5.23,3.18,2.05,CC(SC1=C2C3=CC=C(CC(CC)CCCC)S3)=CC1=C(C4=CC=C(CC(CC)CCCC)S4)C5=C2C=C(S5)C6=CC=C(C7=C8C(C(C9=C(CC(CC)CCCC)SC(CC(CC)CCCC)=C9C8=O)=O)=C(C%10=CC=C(C)S%10)S7)S6,117,58.5,2,1,1,CB,NA,130,100,,,
1050,469,2019,10.7,10.5,16.9,0.69,0.9,ITIC,5.51,3.78,1.73,CCCCCCC(C=C1)=CC=C1C2(C3=CC=C(CCCCCC)C=C3)C4=CC5=C(C(C6=C5SC7=C6SC(/C=C8C(C(C=CC=C9)=C9C\8=C(C#N)\C#N)=O)=C7)(C%10=CC=C(CCCCCC)C=C%10)C%11=CC=C(CCCCCC)C=C%11)C=C4C%12=C2C(SC(/C=C%13C(C(C=CC=C%14)=C%14C\%13=C(C#N)/C#N)=O)=C%15)=C%15S%12,1427.96,PBDB-T,5.23,3.18,2.05,CC(SC1=C2C3=CC=C(CC(CC)CCCC)S3)=CC1=C(C4=CC=C(CC(CC)CCCC)S4)C5=C2C=C(S5)C6=CC=C(C7=C8C(C(C9=C(CC(CC)CCCC)SC(CC(CC)CCCC)=C9C8=O)=O)=C(C%10=CC=C(C)S%10)S7)S6,117,58.5,2,1,1,CB,DIO,130,100,,,
1051,470,2019,3.82,3.82,9.43,0.532,0.78,P-1,5.79,4.31,1.48,O=C(C(C=C(F)C(F)=C1)=C1C/2=C(C#N)\C#N)C2=C/C3=CC=C(/C(C(C=C/4)=NC4=C5\C6=CC(OCCCCCCCCCCCC)=C(OCCCCCCCCCCCC)C(OCCCCCCCCCCCC)=C6)=C7C=C/C8=C(C9=CC(OCCCCCCCCCCCC)=C(OCCCCCCCCCCCC)C(OCCCCCCCCCCCC)=C9)/C%10=N/C(C=C%10)=C(C%11=CC=C(/C=C%12C(C(C=C(F)C(F)=C%13)=C%13C\%12=C(C#N)\C#N)=O)S%11)\C%14=CC=C5N%14[Zn]N8\7)S3,2276.44,PTB7-Th,5.24,3.66,1.58,O=C(OCC(CC)CCCC)C1=C(F)C2=C(C)SC(C3=CC4=C(C(C5=CC=C(CC(CC)CCCC)S5)=C(C=C(C)S6)C6=C4C7=CC=C(CC(CC)CCCC)S7)S3)=C2S1,124,72.9,1.700960219,1,1,CB,pyridine,NA,120,,,
1052,470,2019,6.98,6.98,13.5,0.648,0.8,P-2,5.71,4.28,1.43,O=C(C(C=C(F)C(F)=C1)=C1C/2=C(C#N)\C#N)C2=C/C3=CC=C(/C(C(C=C/4)=NC4=C5\C6=C(OCCCCCCCCCCCC)C=CC=C6OCCCCCCCCCCCC)=C7C=C/C8=C(C9=C(OCCCCCCCCCCCC)C=CC=C9OCCCCCCCCCCCC)/C%10=N/C(C=C%10)=C(C%11=CC=C(/C=C%12C(C(C=C(F)C(F)=C%13)=C%13C\%12=C(C#N)\C#N)=O)S%11)\C%14=CC=C5N%14[Zn]N8\7)S3,1907.79,PTB7-Th,5.24,3.66,1.58,O=C(OCC(CC)CCCC)C1=C(F)C2=C(C)SC(C3=CC4=C(C(C5=CC=C(CC(CC)CCCC)S5)=C(C=C(C)S6)C6=C4C7=CC=C(CC(CC)CCCC)S7)S3)=C2S1,124,72.9,1.700960219,1,1,CB,pyridine,NA,120,,,
1053,470,2019,5.48,5.48,12.07,0.567,0.77,P-3,5.82,4.32,1.5,O=C(C(C=C(F)C(F)=C1)=C1C/2=C(C#N)\C#N)C2=C/C3=CC=C(/C(C(C=C/4)=NC4=C5\C6=CC(C(C)(C)C)=CC(C(C)(C)C)=C6)=C7C=C/C8=C(C9=CC(C(C)(C)C)=CC(C(C)(C)C)=C9)/C%10=N/C(C=C%10)=C(C%11=CC=C(/C=C%12C(C(C=C(F)C(F)=C%13)=C%13C\%12=C(C#N)\C#N)=O)S%11)\C%14=CC=C5N%14[Zn]N8\7)S3,1394.93,PTB7-Th,5.24,3.66,1.58,O=C(OCC(CC)CCCC)C1=C(F)C2=C(C)SC(C3=CC4=C(C(C5=CC=C(CC(CC)CCCC)S5)=C(C=C(C)S6)C6=C4C7=CC=C(CC(CC)CCCC)S7)S3)=C2S1,124,72.9,1.700960219,1,1,CB,pyridine,NA,120,,,
1054,471,2019,7.27,7.08,13.18,0.61,0.85,FDTBT-IDTT-FINCN,5.46,3.92,1.54,CCCCCCC(C=C1)=CC=C1C2(C3=CC=C(CCCCCC)C=C3)C4=CC5=C(C(C6=C5SC7=C6SC(/C=C8C(C(C=C(F)C(F)=C9)=C9C\8=C(C#N)\C#N)=O)=C7)(C%10=CC=C(CCCCCC)C=C%10)C%11=CC=C(CCCCCC)C=C%11)C=C4C%12=C2C(SC(C%13=CC=C(C%14=C(F)C(F)=C(C(S%15)=CC=C%15C%16=CC(S%17)=C(S%16)C%18=C%17C%19=C(C(C%20=CC=C(CCCCCC)C=C%20)%18C%21=CC=C(CCCCCC)C=C%21)C=C%22C(C(C%23=C%22SC%24=C%23SC(/C=C%25C(C(C=C(F)C(F)=C%26)=C%26C\%25=C(C#N)/C#N)=O)=C%24)(C%27=CC=C(CCCCCC)C=C%27)C%28=CC=C(CCCCCC)C=C%28)=C%19)C%29=NSN=C%29%14)S%13)=C%30)=C%30S%12,2851.86,PBDB-T,5.29,3.43,1.86,CC(SC1=C2C3=CC=C(CC(CC)CCCC)S3)=CC1=C(C4=CC=C(CC(CC)CCCC)S4)C5=C2C=C(S5)C6=CC=C(C7=C8C(C(C9=C(CC(CC)CCCC)SC(CC(CC)CCCC)=C9C8=O)=O)=C(C%10=CC=C(C)S%10)S7)S6,117,58.5,2,1,1,CB,DIO,NA,100,,,
1055,471,2019,9.13,9.01,16.69,0.64,0.81,CNDTBT-IDTT-FINCN,5.56,3.98,1.58,CCCCCCC(C=C1)=CC=C1C2(C3=CC=C(CCCCCC)C=C3)C4=CC5=C(C(C6=C5SC7=C6SC(/C=C8C(C(C=C(F)C(F)=C9)=C9C\8=C(C#N)\C#N)=O)=C7)(C%10=CC=C(CCCCCC)C=C%10)C%11=CC=C(CCCCCC)C=C%11)C=C4C%12=C2C(SC(C%13=CC=C(C%14=C(C#N)C(C#N)=C(C(S%15)=CC=C%15C%16=CC(S%17)=C(S%16)C%18=C%17C%19=C(C(C%20=CC=C(CCCCCC)C=C%20)%18C%21=CC=C(CCCCCC)C=C%21)C=C%22C(C(C%23=C%22SC%24=C%23SC(/C=C%25C(C(C=C(F)C(F)=C%26)=C%26C\%25=C(C#N)/C#N)=O)=C%24)(C%27=CC=C(CCCCCC)C=C%27)C%28=CC=C(CCCCCC)C=C%28)=C%19)C%29=NSN=C%29%14)S%13)=C%30)=C%30S%12,2865.9,PBDB-T,5.29,3.43,1.86,CC(SC1=C2C3=CC=C(CC(CC)CCCC)S3)=CC1=C(C4=CC=C(CC(CC)CCCC)S4)C5=C2C=C(S5)C6=CC=C(C7=C8C(C(C9=C(CC(CC)CCCC)SC(CC(CC)CCCC)=C9C8=O)=O)=C(C%10=CC=C(C)S%10)S7)S6,117,58.5,2,1,1,CB,DIO,NA,100,,,
1056,472,2019,12.8,12.5,20.7,0.708,0.85,m-INPOIC,5.38,4,1.38,CCCCCCC(C=C1)=CC=C1C2(C3=CC=C(CCCCCC)C=C3)C4=CC5=C(C(C6=C5SC7=C6SC(/C=C8C(C(C=C(F)C(F)=C9)=C9C\8=C(C#N)\C#N)=O)=C7)(C%10=CC=C(CCCCCC)C=C%10)C%11=CC=C(CCCCCC)C=C%11)C=C4C%12=C2C(SC(C%13=CC=C(C%14=C(C#N)C(C#N)=C(C(S%15)=CC=C%15C%16=CC(S%17)=C(S%16)C%18=C%17C%19=C(C(C%20=CC=C(CCCCCC)C=C%20)%18C%21=CC=C(CCCCCC)C=C%21)C=C%22C(C(C%23=C%22SC%24=C%23SC(/C=C%25C(C(C=C(F)C(F)=C%26)=C%26C\%25=C(C#N)/C#N)=O)=C%24)(C%27=CC=C(CCCCCC)C=C%27)C%28=CC=C(CCCCCC)C=C%28)=C%19)C%29=NSN=C%29%14)S%13)=C%30)=C%30S%12,1866.42,PBDB-T,5.33,3.53,1.8,CC(SC1=C2C3=CC=C(CC(CC)CCCC)S3)=CC1=C(C4=CC=C(CC(CC)CCCC)S4)C5=C2C=C(S5)C6=CC=C(C7=C8C(C(C9=C(CC(CC)CCCC)SC(CC(CC)CCCC)=C9C8=O)=O)=C(C%10=CC=C(C)S%10)S7)S6,117,58.5,2,1,1,CB,DIO,100,105,,,
1057,473,2019,14.16,14.02,25.01,0.712,0.78,Y6,5.68,4.06,1.62,O=C(C(C=C(F)C(F)=C1)=C1C/2=C(C#N)/C#N)C2=C/C3=C(CCCCCCCCCCC)C(SC4=C5N(CC(CC)CCCC)C6=C4C7=NSN=C7C8=C6N(CC(CC)CCCC)C9=C8SC%10=C9SC(/C=C%11/C(C%12=C(C%11=O)C=C(F)C(F)=C%12)=C(C#N)\C#N)=C%10CCCCCCCCCCC)=C5S3,1451.94,PFT-EHp,5.38,3.24,2.14,CC(SC1=C2C3=CC(F)=C(CC(CC)CCCC)S3)=CC1=C(C4=CC(F)=C(CC(CC)CCCC)S4)C5=C2C=C(S5)C6=CC=C(C(C7=NN(CCC(CC)CCCC)N=C87)=C(C(N9CCCCCCCC)=O)C(C9=O)=C8C%10=CC=C(C)S%10)S6,50,25,2,1,1,CF,DBE,110,100,,,
1058,473,2019,15.06,14.96,25.7,0.727,0.79,Y6,5.68,4.06,1.62,O=C(C(C=C(F)C(F)=C1)=C1C/2=C(C#N)/C#N)C2=C/C3=C(CCCCCCCCCCC)C(SC4=C5N(CC(CC)CCCC)C6=C4C7=NSN=C7C8=C6N(CC(CC)CCCC)C9=C8SC%10=C9SC(/C=C%11/C(C%12=C(C%11=O)C=C(F)C(F)=C%12)=C(C#N)\C#N)=C%10CCCCCCCCCCC)=C5S3,1451.94,PCT-EHp,5.46,3.13,2.33,CC(SC1=C2C3=CC(Cl)=C(CC(CC)CCCC)S3)=CC1=C(C4=CC(Cl)=C(CC(CC)CCCC)S4)C5=C2C=C(S5)C6=CC=C(C(C7=NN(CCC(CC)CCCC)N=C87)=C(C(N9CCCCCCCC)=O)C(C9=O)=C8C%10=CC=C(C)S%10)S6,50,25,2,1,1,CF,DBE,110,100,,,
1059,473,2019,15.65,15.5,26.11,0.733,0.81,Y6,5.68,4.06,1.62,O=C(C(C=C(F)C(F)=C1)=C1C/2=C(C#N)/C#N)C2=C/C3=C(CCCCCCCCCCC)C(SC4=C5N(CC(CC)CCCC)C6=C4C7=NSN=C7C8=C6N(CC(CC)CCCC)C9=C8SC%10=C9SC(/C=C%11/C(C%12=C(C%11=O)C=C(F)C(F)=C%12)=C(C#N)\C#N)=C%10CCCCCCCCCCC)=C5S3,1451.94,P2F-EHp,5.46,3.14,2.32,CC(SC1=C2C(C=C3F)=CC(F)=C3CC(CC)CCCC)=CC1=C(C4=CC(F)=C(C(F)=C4)CC(CC)CCCC)C5=C2C=C(S5)C6=CC=C(C(C7=NN(CCC(CC)CCCC)N=C87)=C(C(N9CCCCCCCC)=O)C(C9=O)=C8C%10=CC=C(C)S%10)S6,50,25,2,1,1,CF,DBE,110,100,,,
1060,474,2019,8.61,8.44,23.41,0.553,0.66,Y6,5.65,4.1,1.55,O=C(C(C=C(F)C(F)=C1)=C1C/2=C(C#N)/C#N)C2=C/C3=C(CCCCCCCCCCC)C(SC4=C5N(CC(CC)CCCC)C6=C4C7=NSN=C7C8=C6N(CC(CC)CCCC)C9=C8SC%10=C9SC(/C=C%11/C(C%12=C(C%11=O)C=C(F)C(F)=C%12)=C(C#N)\C#N)=C%10CCCCCCCCCCC)=C5S3,1451.94,PE61,5.19,3.44,1.75,CC1=CC(C(S1)=C2C3=CC=C(CC(CC)CCCC)S3)=C(C4=C2C=C(C5=CC=C(C6=C(F)C(F)=C(C7=CC=C(C)S7)C8=C6N=C(C9=CC=CC(OCCCCCCCC)=C9)C(C%10=CC(OCCCCCCCC)=CC=C%10)=N8)S5)S4)C%11=CC=C(CC(CC)CCCC)S%11,55.4,18.3,3.027322404,1,1.2,CF,DPE,110,,,,
1061,474,2019,12.02,11.84,24.64,0.6222,0.78,Y6,5.65,4.1,1.55,O=C(C(C=C(F)C(F)=C1)=C1C/2=C(C#N)/C#N)C2=C/C3=C(CCCCCCCCCCC)C(SC4=C5N(CC(CC)CCCC)C6=C4C7=NSN=C7C8=C6N(CC(CC)CCCC)C9=C8SC%10=C9SC(/C=C%11/C(C%12=C(C%11=O)C=C(F)C(F)=C%12)=C(C#N)\C#N)=C%10CCCCCCCCCCC)=C5S3,1451.94,PE62,5.37,3.48,1.89,CC1=CC(C(S1)=C2C3=CC(F)=C(CC(CC)CCCC)S3)=C(C4=C2C=C(C5=CC=C(C6=C(F)C(F)=C(C7=CC=C(C)S7)C8=C6N=C(C9=CC=CC(OCCCCCCCC)=C9)C(C%10=CC(OCCCCCCCC)=CC=C%10)=N8)S5)S4)C%11=CC(F)=C(CC(CC)CCCC)S%11,54.1,17.1,3.16374269,1,1.2,CF,DPE,110,,,,
1062,474,2019,13.1,13.01,24.68,0.6374,0.83,Y6,5.65,4.1,1.55,O=C(C(C=C(F)C(F)=C1)=C1C/2=C(C#N)/C#N)C2=C/C3=C(CCCCCCCCCCC)C(SC4=C5N(CC(CC)CCCC)C6=C4C7=NSN=C7C8=C6N(CC(CC)CCCC)C9=C8SC%10=C9SC(/C=C%11/C(C%12=C(C%11=O)C=C(F)C(F)=C%12)=C(C#N)\C#N)=C%10CCCCCCCCCCC)=C5S3,1451.94,PE63,5.41,3.5,1.91,CC1=CC(C(S1)=C2C3=CC(F)=C(SCC(CC)CCCC)S3)=C(C4=C2C=C(C5=CC=C(C6=C(F)C(F)=C(C7=CC=C(C)S7)C8=C6N=C(C9=CC=CC(OCCCCCCCC)=C9)C(C%10=CC(OCCCCCCCC)=CC=C%10)=N8)S5)S4)C%11=CC(F)=C(SCC(CC)CCCC)S%11,66.2,22.9,2.890829694,1,1.2,CF,DPE,110,,,,
1063,475,2019,11.05,10.63,22.44,0.6458,0.73,Y6,5.65,4.1,1.55,O=C(C(C=C(F)C(F)=C1)=C1C/2=C(C#N)/C#N)C2=C/C3=C(CCCCCCCCCCC)C(SC4=C5N(CC(CC)CCCC)C6=C4C7=NSN=C7C8=C6N(CC(CC)CCCC)C9=C8SC%10=C9SC(/C=C%11/C(C%12=C(C%11=O)C=C(F)C(F)=C%12)=C(C#N)\C#N)=C%10CCCCCCCCCCC)=C5S3,1451.94,PIDTT-DTffBTA,5.25,3.63,1.62,CC(S1)=CC=C1C(C2=NN(CC(CCCCCC)CCCCCCCC)N=C23)=C(F)C(F)=C3C4=CC=C(C5=CC(S6)=C(S5)C7=C6C8=C(C(C9=CC=C(CCCCCC)C=C9)7C%10=CC=C(CCCCCC)C=C%10)C=C%11C(C(C%12=C%11SC%13=C%12SC(C)=C%13)(C%14=CC=C(CCCCCC)C=C%14)C%15=CC=C(CCCCCC)C=C%15)=C8)S4,66.7,23,2.9,1,1.5,CF,DPE,220,,,,
1064,475,2019,7.15,7.08,20.43,0.5164,0.65,Y6,5.65,4.1,1.55,O=C(C(C=C(F)C(F)=C1)=C1C/2=C(C#N)/C#N)C2=C/C3=C(CCCCCCCCCCC)C(SC4=C5N(CC(CC)CCCC)C6=C4C7=NSN=C7C8=C6N(CC(CC)CCCC)C9=C8SC%10=C9SC(/C=C%11/C(C%12=C(C%11=O)C=C(F)C(F)=C%12)=C(C#N)\C#N)=C%10CCCCCCCCCCC)=C5S3,1451.94,J52,5.12,3.58,1.54,CC1=CC(C(S1)=C2C3=CC=C(CC(CC)CCCC)S3)=C(C4=C2C=C(C5=CC=C(C6=C(F)C(F)=C(C7=CC=C(C)S7)C8=NN(CC(CCCCCC)CCCCCCCC)N=C68)S5)S4)C9=CC=C(CC(CC)CCCC)S9,170,53.1,3.201506591,1,1.5,CF,NA,170,,,,
1065,476,2019,10.96,10.45,18.94,0.683,0.81,IT-4F,5.49,3.89,1.6,CCCCCCC(C=C1)=CC=C1C2(C3=CC=C(CCCCCC)C=C3)C4=CC5=C(C(C6=C5SC7=C6SC(/C=C8C(C(C=C(F)C(F)=C9)=C9C\8=C(C#N)\C#N)=O)=C7)(C%10=CC=C(CCCCCC)C=C%10)C%11=CC=C(CCCCCC)C=C%11)C=C4C%12=C2C(SC(/C=C%13C(C(C=C(F)C(F)=C%14)=C%14C\%13=C(C#N)/C#N)=O)=C%15)=C%15S%12,1499.92,PDTPO-BDTT,5.2,2.93,2.27,CC(SC1=C2C3=CC=C(CC(CC)CCCC)S3)=CC1=C(C4=CC=C(CC(CC)CCCC)S4)C5=C2C=C(C6=CC7=C(C(SC(C)=C8)=C8C(N7CC(CCCCCCCC)CCCCCCCCCC)=O)S6)S5,50,25,2,1,1.2,CB,DIO,SVA-CF,85,,,
1066,476,2019,10.04,9.66,18.72,0.623,0.83,NNFA-4F,5.29,3.9,1.39,O=C1C2=C(C=C(F)C(F)=C2)C(/C1=C/C3=CC(S4)=C(S3)C(C(C5=CC=C(CCCCCC)C=C5)6C7=CC=C(CCCCCC)C=C7)=C4C8=C6C9=CC(SC(C%10=C%11C(SC(/C=C%12/C(C(C=C(F)C(F)=C%13)=C%13C%12=O)=C(C#N)\C#N)=C%14)=C%14S%10)=C%15C%11(C%16=CC=C(CCCCCC)C=C%16)C%17=CC=C(CCCCCC)C=C%17)=C%15C=C9S8)=C(C#N)\C#N,1612.08,PDTPO-BDTT,5.2,2.93,2.27,CC(SC1=C2C3=CC=C(CC(CC)CCCC)S3)=CC1=C(C4=CC=C(CC(CC)CCCC)S4)C5=C2C=C(C6=CC7=C(C(SC(C)=C8)=C8C(N7CC(CCCCCCCC)CCCCCCCCCC)=O)S6)S5,50,25,2,1,1.4,CF,NA,SVA-CF,113,,,
1067,476,2019,6.46,6.12,16.26,0.465,0.81,COi8DFIC,5.26,3.9,1.36,CCCCCCC(C=C1)=CC=C1C2(C(C(SC(/C=C3/C(C(C=C4F)=C(C3=O)C=C4F)=C(C#N)\C#N)=C5)=C5S6)=C6C(S7)=C(O2)C8=C7C9=C(S8)C%10=C(C(C%11=CC=C(CCCCCC)C=C%11)(O9)C%12=CC=C(CCCCCC)C=C%12)C(SC(/C=C%13C(C(C=C(F)C(F)=C%14)=C%14C\%13=C(C#N)\C#N)=O)=C%15)=C%15S%10)C%16=CC=C(CCCCCC)C=C%16,1594.02,PDTPO-BDTT,5.2,2.93,2.27,CC(SC1=C2C3=CC=C(CC(CC)CCCC)S3)=CC1=C(C4=CC=C(CC(CC)CCCC)S4)C5=C2C=C(C6=CC7=C(C(SC(C)=C8)=C8C(N7CC(CCCCCCCC)CCCCCCCCCC)=O)S6)S5,50,25,2,1,1.8,CF,DIO,SVA-CF,88,,,
1068,477,2019,9.95,9.87,15.4,0.71,0.88,ITIC,5.11,3.52,1.59,CCCCCCC(C=C1)=CC=C1C2(C3=CC=C(CCCCCC)C=C3)C4=CC5=C(C(C6=C5SC7=C6SC(/C=C8C(C(C=CC=C9)=C9C\8=C(C#N)\C#N)=O)=C7)(C%10=CC=C(CCCCCC)C=C%10)C%11=CC=C(CCCCCC)C=C%11)C=C4C%12=C2C(SC(/C=C%13C(C(C=CC=C%14)=C%14C\%13=C(C#N)/C#N)=O)=C%15)=C%15S%12,1427.96,PBDB-T,5.33,3.53,1.8,CC(SC1=C2C3=CC=C(CC(CC)CCCC)S3)=CC1=C(C4=CC=C(CC(CC)CCCC)S4)C5=C2C=C(S5)C6=CC=C(C7=C8C(C(C9=C(CC(CC)CCCC)SC(CC(CC)CCCC)=C9C8=O)=O)=C(C%10=CC=C(C)S%10)S7)S6,117,58.5,2,1,1,CB,DIO,100,100,,,
1069,477,2019,12.18,11.51,18.62,0.72,0.87,IT-4F,5.66,4.14,1.52,CCCCCCC(C=C1)=CC=C1C2(C3=CC=C(CCCCCC)C=C3)C4=CC5=C(C(C6=C5SC7=C6SC(/C=C8C(C(C=C(F)C(F)=C9)=C9C\8=C(C#N)\C#N)=O)=C7)(C%10=CC=C(CCCCCC)C=C%10)C%11=CC=C(CCCCCC)C=C%11)C=C4C%12=C2C(SC(/C=C%13C(C(C=C(F)C(F)=C%14)=C%14C\%13=C(C#N)/C#N)=O)=C%15)=C%15S%12,1499.92,PBDB-T-SF,5.4,3.6,1.8,CC(SC1=C2C3=CC(F)=C(SCC(CC)CCCC)S3)=CC1=C(C4=CC(F)=C(SCC(CC)CCCC)S4)C5=C2C=C(C6=CC=C(C7=C8C(C(C9=C(CC(CC)CCCC)SC(CC(CC)CCCC)=C9C8=O)=O)=C(C%10=CC=C(C)S%10)S7)S6)S5,58.194,18.348,3.171680837,1,1,CB,DIO,160,100,,,
1070,478,2019,10.1,9.92,20.02,0.07055,0.71,IT-4F,5.66,4.14,1.52,CCCCCCC(C=C1)=CC=C1C2(C3=CC=C(CCCCCC)C=C3)C4=CC5=C(C(C6=C5SC7=C6SC(/C=C8C(C(C=C(F)C(F)=C9)=C9C\8=C(C#N)\C#N)=O)=C7)(C%10=CC=C(CCCCCC)C=C%10)C%11=CC=C(CCCCCC)C=C%11)C=C4C%12=C2C(SC(/C=C%13C(C(C=C(F)C(F)=C%14)=C%14C\%13=C(C#N)/C#N)=O)=C%15)=C%15S%12,1499.92,PBDB-T,5.33,2.92,2.41,CC(SC1=C2C3=CC=C(CC(CC)CCCC)S3)=CC1=C(C4=CC=C(CC(CC)CCCC)S4)C5=C2C=C(S5)C6=CC=C(C7=C8C(C(C9=C(CC(CC)CCCC)SC(CC(CC)CCCC)=C9C8=O)=O)=C(C%10=CC=C(C)S%10)S7)S6,117,58.5,2,1,1,CB,NA,NA,,,,
1071,479,2019,10.3,10.3,17.1,0.686,0.878,ITIC,5.5,3.89,1.61,CCCCCCC(C=C1)=CC=C1C2(C3=CC=C(CCCCCC)C=C3)C4=CC5=C(C(C6=C5SC7=C6SC(/C=C8C(C(C=CC=C9)=C9C\8=C(C#N)\C#N)=O)=C7)(C%10=CC=C(CCCCCC)C=C%10)C%11=CC=C(CCCCCC)C=C%11)C=C4C%12=C2C(SC(/C=C%13C(C(C=CC=C%14)=C%14C\%13=C(C#N)/C#N)=O)=C%15)=C%15S%12,1427.96,PBDB-T,5.4,3.6,1.8,CC(SC1=C2C3=CC=C(CC(CC)CCCC)S3)=CC1=C(C4=CC=C(CC(CC)CCCC)S4)C5=C2C=C(S5)C6=CC=C(C7=C8C(C(C9=C(CC(CC)CCCC)SC(CC(CC)CCCC)=C9C8=O)=O)=C(C%10=CC=C(C)S%10)S7)S6,70.683,26.942,2.623524608,1,1,CB,DIO,NA,,,,
1072,480,2019,10.62,9.63,19.14,0.6121,0.847,NCBDT,5.36,3.89,1.47,O=C1C2=C(C(/C1=C/C(S3)=CC4=C3C5=C(C4(C6=CC=C(CCCCCC)C=C6)C7=CC=C(CCCCCC)C=C7)C8=C(CCCCCCCC)C(SC9=C%10C(C%11=CC=C(CCCCCC)C=C%11)(C%12=CC=C(CCCCCC)C=C%12)C%13=C9SC(/C=C%14C(C(C=CC(F)=C%15)=C%15C\%14=C(C#N)\C#N)=O)=C%13)=C%10C(CCCCCCCC)=C8S5)=C(C#N)/C#N)C=C(F)C=C2,1688.37,PBDB-T,5.33,3.53,1.8,CC(SC1=C2C3=CC=C(CC(CC)CCCC)S3)=CC1=C(C4=CC=C(CC(CC)CCCC)S4)C5=C2C=C(S5)C6=CC=C(C7=C8C(C(C9=C(CC(CC)CCCC)SC(CC(CC)CCCC)=C9C8=O)=O)=C(C%10=CC=C(C)S%10)S7)S6,117,58.5,2,1,0.8,CF,NA,NA,100,,,