ID,Ref,year,PCE_max(%),PCE_ave(%),Jsc(mA/cm2),FF,Voc(V),Nickname(n),-HOMO_n(eV),-LUMO_n(eV),Eg_n(eV),n(SMILES),M (g/mol),Nickname(p),-HOMO_p(eV),-LUMO_p(eV),Eg_p(eV),p(SMILES),Mw (kg/mol),Mn(kg/mol),PDI,p/n ratio (p),p/n ratio (n),Solvent,Additive,TA (oC),thick (nm),,Journal,DOI
42,19,2018,5.4,5,10.4,0.561,0.93,SF-PDI4,5.8,3.75,2.05,O=C(N(C(CCCCC)CCCCC)C1=O)C2=CC(C3=CC(C45C(C=C(C6=C(C7=C8C=CC9C7C(C(N(C(CCCCC)CCCCC)C9=O)=O)=C6)C%10=CC=C%11C%12=C%10C8=CC=C%12C(N(C(CCCCC)CCCCC)C%11=O)=O)C=C%13)C%13C%14=C4C=C(C%15=C(C%16=CC=C(C%17=O)C%18C%16=C%19C=CC%18C(N%17C(CCCCC)CCCCC)=O)C(C%19=CC=C%20C(N(C(CCCCC)CCCCC)C%21=O)=O)=C%20C%21=C%15)C=C%14)=C(C%22C5C=CC(C(C=C%23C(N(C(CCCCC)CCCCC)C%24=O)=O)=C%25C%26=C%23C%24=CC=C%26C%27=CC=C(C%28=O)C%29C%27=C%25C=CC%29C(N%28C(CCCCC)CCCCC)=O)=C%22)C=C3)=C(C%30=C%31C=CC1C%302)C%32=CC=C%33C%34=C%32C%31=CC=C%34C(N(C(CCCCC)CCCCC)C%33=O)=O,3120.26,PBDB-T,5.41,3.57,1.84,CC(SC1=C2C3=CC=C(CC(CC)CCCC)S3)=CC1=C(C4=CC=C(CC(CC)CCCC)S4)C5=C2C=C(S5)C6=CC=C(C7=C8C(C(C9=C(CC(CC)CCCC)SC(CC(CC)CCCC)=C9C8=O)=O)=C(C%10=CC=C(C)S%10)S7)S6,117,58.5,2,1,1,CB,DPE,NA,,,ACS Appl. Mater. Interfaces,10.1021/acsami.7b16406
43,19,2018,6.7,6.5,12.4,0.622,0.87,Ph-PDI3,5.81,3.84,1.97,O=C(N(C(CCCCC)CCCCC)C1=O)C2=CC(C3=CC(C4=C(C5=CC=C(C6=O)C7C5=C8C=CC7C(N6C(CCCCC)CCCCC)=O)C(C8=CC=C9C(N(C(CCCCC)CCCCC)C%10=O)=O)=C9C%10=C4)=CC(C(C=C%11C(N(C(CCCCC)CCCCC)C%12=O)=O)=C%13C%14=C%11C%12=CC=C%14C%15=CC=C(C%16=O)C%17C%15=C%13C=CC%17C(N%16C(CCCCC)CCCCC)=O)=C3)=C(C%18=C%19C=CC1C%182)C%20=CC=C%21C%22=C%20C%19=CC=C%22C(N(C(CCCCC)CCCCC)C%21=O)=O,2174.96,PBDB-T,5.41,3.57,1.84,CC(SC1=C2C3=CC=C(CC(CC)CCCC)S3)=CC1=C(C4=CC=C(CC(CC)CCCC)S4)C5=C2C=C(S5)C6=CC=C(C7=C8C(C(C9=C(CC(CC)CCCC)SC(CC(CC)CCCC)=C9C8=O)=O)=C(C%10=CC=C(C)S%10)S7)S6,117,58.5,2,1,1,CB,DPE,NA,,,ACS Appl. Mater. Interfaces,10.1021/acsami.7b16406
44,19,2018,7.3,7,13.6,0.597,0.9,BP-PDI4,5.84,3.77,2.07,O=C(N(C(CCCCC)CCCCC)C1=O)C2=CC=C(C3=C4C=CC1C32)C5=C(C6=CC(C7=CC(C8=C(C9=C%10C=CC%11C9C(C(N(C(CCCCC)CCCCC)C%11=O)=O)=C8)C%12=CC=C%13C%14=C%12C%10=CC=C%14C(N(C(CCCCC)CCCCC)C%13=O)=O)=CC(C(C=C%15C(N(C(CCCCC)CCCCC)C%16=O)=O)=C%17C%18=C%15C%16=CC=C%18C%19=CC=C(C%20=O)C%21C%19=C%17C=CC%21C(N%20C(CCCCC)CCCCC)=O)=C7)=CC(C%22=C(C%23=CC=C(C%24=O)C%25C%23=C%26C=CC%25C(N%24C(CCCCC)CCCCC)=O)C(C%26=CC=C%27C(N(C(CCCCC)CCCCC)C%28=O)=O)=C%27C%28=C%22)=C6)C=C%29C%30=C5C4=CC=C%30C(N(C(CCCCC)CCCCC)C%29=O)=O,2956.05,PBDB-T,5.41,3.57,1.84,CC(SC1=C2C3=CC=C(CC(CC)CCCC)S3)=CC1=C(C4=CC=C(CC(CC)CCCC)S4)C5=C2C=C(S5)C6=CC=C(C7=C8C(C(C9=C(CC(CC)CCCC)SC(CC(CC)CCCC)=C9C8=O)=O)=C(C%10=CC=C(C)S%10)S7)S6,117,58.5,2,1,1,CB,DPE,NA,,,ACS Appl. Mater. Interfaces,10.1021/acsami.7b16406
45,20,2018,1.57,1.57,3.94,0.46,0.87,ITIC,5.51,3.84,1.67,CCCCCCC(C=C1)=CC=C1C2(C3=CC=C(CCCCCC)C=C3)C4=CC5=C(C(C6=C5SC7=C6SC(/C=C8C(C(C=CC=C9)=C9C\8=C(C#N)\C#N)=O)=C7)(C%10=CC=C(CCCCCC)C=C%10)C%11=CC=C(CCCCCC)C=C%11)C=C4C%12=C2C(SC(/C=C%13C(C(C=CC=C%14)=C%14C\%13=C(C#N)/C#N)=O)=C%15)=C%15S%12,1427.96,PTTBT_BO,5.51,3.82,1.69,CCCCCCC(CCCC)COC1=C(C)C2=NSN=C2C(C3=CC(SC(C)=C4)=C4S3)=C1OCC(CCCC)CCCCCC,123.2,44,2.8,1,1,CB,ODT,NA,,,ACS Appl. Mater. Interfaces,10.1021/acsami.7b18152
46,20,2018,5.41,5.41,10.42,0.59,0.88,ITIC,5.51,3.84,1.67,CCCCCCC(C=C1)=CC=C1C2(C3=CC=C(CCCCCC)C=C3)C4=CC5=C(C(C6=C5SC7=C6SC(/C=C8C(C(C=CC=C9)=C9C\8=C(C#N)\C#N)=O)=C7)(C%10=CC=C(CCCCCC)C=C%10)C%11=CC=C(CCCCCC)C=C%11)C=C4C%12=C2C(SC(/C=C%13C(C(C=CC=C%14)=C%14C\%13=C(C#N)/C#N)=O)=C%15)=C%15S%12,1427.96,PDTBT_BO,5.49,3.73,1.76,CCCCCCC(CCCC)COC1=C(C)C2=NSN=C2C(C3=CC=C(C4=CC=C(C)S4)S3)=C1OCC(CCCC)CCCCCC,77,35,2.2,1,1,CB,ODT,NA,,,ACS Appl. Mater. Interfaces,10.1021/acsami.7b18152
47,20,2018,2.46,2.46,7.04,0.38,0.92,ITIC,5.51,3.84,1.67,CCCCCCC(C=C1)=CC=C1C2(C3=CC=C(CCCCCC)C=C3)C4=CC5=C(C(C6=C5SC7=C6SC(/C=C8C(C(C=CC=C9)=C9C\8=C(C#N)\C#N)=O)=C7)(C%10=CC=C(CCCCCC)C=C%10)C%11=CC=C(CCCCCC)C=C%11)C=C4C%12=C2C(SC(/C=C%13C(C(C=CC=C%14)=C%14C\%13=C(C#N)/C#N)=O)=C%15)=C%15S%12,1427.96,P2FDTBT_BO,5.57,3.94,1.63,CCCCCCC(CCCC)COC1=C(C)C2=NSN=C2C(C3=CC(F)=C(C4=C(F)C=C(C)S4)S3)=C1OCC(CCCC)CCCCCC,108,36,3,1,1,CB,ODT,NA,,,ACS Appl. Mater. Interfaces,10.1021/acsami.7b18152
48,21,2018,4.71,4.6,11.55,0.47,0.85,TPC,6.06,3.75,2.31,O=C(N(C(CCC)CCC)C1=O)C2=CC=C(C3=C4C=CC1C32)C5=CC(C(C=C6)=CC=C6C(C7=CC=C(C8=CC9=C%10C(C%11=CC=C%12C%13=C%11C9=CC=C%13C(N(C(CCC)CCC)C%12=O)=O)=CC=C(C%14=O)C%10C8C(N%14C(CCC)CCC)=O)C=C7)(C%15=CC=C(C%16=CC%17=C%18C(C%19=CC=C%20C%21=C%19C%17=CC=C%21C(N(C(CCC)CCC)C%20=O)=O)=CC=C(C%22=O)C%18C%16C(N%22C(CCC)CCC)=O)C=C%15)C%23=CC=C(C%24=C%25C%26=C(C%27=CC=C%26C(N(C(CCC)CCC)C%25=O)=O)C(C%28=CC=C(C%29=O)C%30C%28=C%27C=CC%30C(N%29C(CCC)CCC)=O)=C%24)C=C%23)=C%31C%32=C5C4=CC=C%32C(N(C(CCC)CCC)C%31=O)=O,2667.36,PTB7-Th,5.04,3.45,1.59,O=C(OCC(CC)CCCC)C1=C(F)C2=C(C)SC(C3=CC4=C(C(C5=CC=C(CC(CC)CCCC)S5)=C(C=C(C)S6)C6=C4C7=CC=C(CC(CC)CCCC)S7)S3)=C2S1,124,72.9,1.7,1,1.5,CB,NA,NA,90,,ACS Appl. Mater. Interfaces,10.1021/acsami.7b18717
49,21,2018,3.68,3.64,10.35,0.42,0.83,TPSi,6.06,3.77,2.29,O=C(N(C(CCC)CCC)C1=O)C2=CC=C(C3=C4C=CC1C32)C5=CC(C(C=C6)=CC=C6[Si](C7=CC=C(C8=CC9=C%10C(C%11=CC=C%12C%13=C%11C9=CC=C%13C(N(C(CCC)CCC)C%12=O)=O)=CC=C(C%14=O)C%10C8C(N%14C(CCC)CCC)=O)C=C7)(C%15=CC=C(C%16=CC%17=C%18C(C%19=CC=C%20C%21=C%19C%17=CC=C%21C(N(C(CCC)CCC)C%20=O)=O)=CC=C(C%22=O)C%18C%16C(N%22C(CCC)CCC)=O)C=C%15)C%23=CC=C(C%24=C%25C%26=C(C%27=CC=C%26C(N(C(CCC)CCC)C%25=O)=O)C(C%28=CC=C(C%29=O)C%30C%28=C%27C=CC%30C(N%29C(CCC)CCC)=O)=C%24)C=C%23)=C%31C%32=C5C4=CC=C%32C(N(C(CCC)CCC)C%31=O)=O,2683.44,PTB7-Th,5.04,3.45,1.59,O=C(OCC(CC)CCCC)C1=C(F)C2=C(C)SC(C3=CC4=C(C(C5=CC=C(CC(CC)CCCC)S5)=C(C=C(C)S6)C6=C4C7=CC=C(CC(CC)CCCC)S7)S3)=C2S1,124,72.9,1.7,1,1.5,CB,NA,NA,90,,ACS Appl. Mater. Interfaces,10.1021/acsami.7b18717
50,21,2018,7.38,7.08,15.02,0.58,0.81,TPB,5.94,3.79,2.15,O=C(N(C(CCC)CCC)C1=O)C2=CC=C(C3=C4C=CC1=C32)C5=CC(C(S6)=CC7=C6C(C8=CC=C(C9=CC%10=C%11C(C%12=CC=C%13C%14=C%12C%10=CC=C%14C(N(C(CCC)CCC)C%13=O)=O)=CC=C(C%15=O)C%11=C9C(N%15C(CCC)CCC)=O)S8)=C(C=C(C%16=CC%17=C%18C(C%19=CC=C%20C%21=C%19C%17=CC=C%21C(N(C(CCC)CCC)C%20=O)=O)=CC=C(C%22=O)C%18=C%16C(N%22C(CCC)CCC)=O)S%23)C%23=C7C%24=CC=C(C%25=C%26C%27=C(C%28=CC=C%27C(N(C(CCC)CCC)C%26=O)=O)C(C%29=CC=C(C(N(C(CCC)CCC)C%30=O)=O)C%31=C%30C=CC%28=C%29%31)=C%25)S%24)=C%32C%33=C5C4=CC=C%33C(N(C(CCC)CCC)C%32=O)=O,2693.38,PTB7-Th,5.04,3.45,1.59,O=C(OCC(CC)CCCC)C1=C(F)C2=C(C)SC(C3=CC4=C(C(C5=CC=C(CC(CC)CCCC)S5)=C(C=C(C)S6)C6=C4C7=CC=C(CC(CC)CCCC)S7)S3)=C2S1,124,72.9,1.7,1,1.5,CB,NA,NA,90,,ACS Appl. Mater. Interfaces,10.1021/acsami.7b18717
51,21,2018,6.61,6.32,14.36,0.55,0.81,TPSe,5.97,3.81,2.16,O=C(N(C(CCC)CCC)C1=O)C2=CC=C(C3=C4C=CC1=C32)C5=CC(C(S6)=CC7=C6C(C8=CC=C(C9=CC%10=C%11C(C%12=CC=C%13C%14=C%12C%10=CC=C%14C(N(C(CCC)CCC)C%13=O)=O)=CC=C(C%15=O)C%11=C9C(N%15C(CCC)CCC)=O)[Se]8)=C(C=C(C%16=CC%17=C%18C(C%19=CC=C%20C%21=C%19C%17=CC=C%21C(N(C(CCC)CCC)C%20=O)=O)=CC=C(C%22=O)C%18=C%16C(N%22C(CCC)CCC)=O)S%23)C%23=C7C%24=CC=C(C%25=C%26C%27=C(C%28=CC=C%27C(N(C(CCC)CCC)C%26=O)=O)C(C%29=CC=C(C(N(C(CCC)CCC)C%30=O)=O)C%31=C%30C=CC%28=C%29%31)=C%25)[Se]%24)=C%32C%33=C5C4=CC=C%33C(N(C(CCC)CCC)C%32=O)=O,2787.18,PTB7-Th,5.04,3.45,1.59,O=C(OCC(CC)CCCC)C1=C(F)C2=C(C)SC(C3=CC4=C(C(C5=CC=C(CC(CC)CCCC)S5)=C(C=C(C)S6)C6=C4C7=CC=C(CC(CC)CCCC)S7)S3)=C2S1,124,72.9,1.7,1,1.5,CB,NA,NA,90,,ACS Appl. Mater. Interfaces,10.1021/acsami.7b18717
52,22,2018,4.03,3.7,6.02,0.67,1,Qx1,5.42,3.68,1.74,CCCCCCC(C=C1)=CC=C1C(C2=C3SC(C4=CC=C(/C=C5C(N(CC)C(S\5)=S)=O)C6=C4N=C(C7=CC=CC=C7)C(C8=CC=CC=C8)=N6)=C2)(C9=CC=C(CCCCCC)C=C9)C%10=C3C=C(C(C%11=C%12SC(C%13=CC=C(/C=C%14C(N(CC)C(S\%14)=S)=O)C%15=C%13N=C(C%16=CC=CC=C%16)C(C%17=CC=CC=C%17)=N%15)=C%11)(C%18=CC=C(CCCCCC)C=C%18)C%19=CC=C(CCCCCC)C=C%19)C%12=C%10,1810.54,P3HT,5.2,3.2,2,CC1=CC(CCCCCC)=C(C)S1,21.1,11.6,1.82,1,0.6,DCB,CN,150,,,ACS Appl. Mater. Interfaces,10.1021/acsami.8b00216
53,22,2018,4.81,4.64,7.34,0.69,0.95,Qx2b,5.35,3.67,1.68,O=C(N(CC)C(S/1)=S)C1=C/C(C2=C3N=C(C4=CC=CC=C4)C(C5=CC=CC=C5)=N2)=CC=C3C(S6)=CC7=C6C8=CC(C(CCCCCCCC)(CCCCCCCC)C9=C%10SC(C%11=CC=C(/C=C%12C(N(CC)C(S\%12)=S)=O)C%13=C%11N=C(C%14=CC=CC=C%14)C(C%15=CC=CC=C%15)=N%13)=C9)=C%10C=C8C7(CCCCCCCC)CCCCCCCC,1618.36,P3HT,5,3.1,1.9,CC1=CC(CCCCCC)=C(C)S1,21.1,11.6,1.82,1,1.25,DCB,CN,150,,,ACS Appl. Mater. Interfaces,10.1021/acsami.8b00216
54,23,2018,3.26,3.26,8.96,0.42,0.87,3r,5.82,3.87,1.95,O=C(N(C(CCCCCC)CCCCCC)C1=O)C2=CC=C(C3=C4C=CC1C32)C5=C(C6=CC7=C(CC(CC)CCCC)C8=C(C=C(C9=CC%10C%11C%12=C9C%13=CC=C(C(N%14C(CCCCCC)CCCCCC)=O)C%15=C%13C(C%12=CC=C%11C(N(C(CCCCCC)CCCCCC)C%10=O)=O)=CC=C%15C%14=O)S8)C(CC(CC)CCCC)=C7S6)C=C%16C%17=C5C4=CC=C%17C(N(C(CCCCCC)CCCCCC)C%16=O)=O,1924.82,PTB7-Th,5.29,3.72,1.57,O=C(OCC(CC)CCCC)C1=C(F)C2=C(C)SC(C3=CC4=C(C(C5=CC=C(CC(CC)CCCC)S5)=C(C=C(C)S6)C6=C4C7=CC=C(CC(CC)CCCC)S7)S3)=C2S1,124,72.9,1.7,1,2,CB,DIO,NA,,,ACS Appl. Mater. Interfaces,10.1021/acsami.8b01308
55,23,2018,3.75,3.75,9.31,0.43,0.94,C3r,5.9,3.84,2.06,O=C(N(C(CCCCCC)CCCCCC)C1=O)C2=CC3=C(C4=C5C=CC1C42)C6=C(C7=C3SC8=C7C(CC(CC)CCCC)=C9C(C%10=C(C(C=C%11C(N(C(CCCCCC)CCCCCC)C%12=O)=O)=C%13C%14=C%11C%12=CC=C%14C%15=CC=C(C%16=O)C%17C%15=C%13C%10=CC%17C(N%16C(CCCCCC)CCCCCC)=O)S9)=C8CC(CC)CCCC)C=C%18C%19=C6C5=CC=C%19C(N(C(CCCCCC)CCCCCC)C%18=O)=O,1920.79,PTB7-Th,5.29,3.72,1.57,O=C(OCC(CC)CCCC)C1=C(F)C2=C(C)SC(C3=CC4=C(C(C5=CC=C(CC(CC)CCCC)S5)=C(C=C(C)S6)C6=C4C7=CC=C(CC(CC)CCCC)S7)S3)=C2S1,124,72.9,1.7,1,2,CB,DIO,NA,,,ACS Appl. Mater. Interfaces,10.1021/acsami.8b01308
56,23,2018,2.97,2.97,8.39,0.4,0.89,5r,5.68,3.87,1.81,O=C(N(C(CCCCCC)CCCCCC)C1=O)C2=CC=C(C3=C4C=CC1C32)C5=C(C6=CC7=C(S6)C8=C(CC(CC)CCCC)C9=C(C(SC(C%10=CC%11C%12C%13=C%10C%14=CC=C(C(N%15C(CCCCCC)CCCCCC)=O)C%16=C%14C(C%13=CC=C%12C(N(C(CCCCCC)CCCCCC)C%11=O)=O)=CC=C%16C%15=O)=C%17)=C%17S9)C(CC(CC)CCCC)=C8S7)C=C%18C%19=C5C4=CC=C%19C(N(C(CCCCCC)CCCCCC)C%18=O)=O,2036.99,PTB7-Th,5.29,3.72,1.57,O=C(OCC(CC)CCCC)C1=C(F)C2=C(C)SC(C3=CC4=C(C(C5=CC=C(CC(CC)CCCC)S5)=C(C=C(C)S6)C6=C4C7=CC=C(CC(CC)CCCC)S7)S3)=C2S1,124,72.9,1.7,1,2,CB,DIO,NA,,,ACS Appl. Mater. Interfaces,10.1021/acsami.8b01308
57,23,2018,5.59,5.59,12.5,0.47,0.95,C5r,5.69,3.82,1.87,O=C(N(C(CCCCCC)CCCCCC)C1=O)C2=CC3=C(C4=C5C=CC1C42)C6=C(C7=C3C8=C(S7)C9=C(CC(CC)CCCC)C%10=C(C(SC%11=C%12C(C=C%13C(N(C(CCCCCC)CCCCCC)C%14=O)=O)=C%15C%16=C%13C%14=CC=C%16C%17=CC=C(C%18=O)C%19C%17=C%15C%11=CC%19C(N%18C(CCCCCC)CCCCCC)=O)=C%12S%10)C(CC(CC)CCCC)=C9S8)C=C%20C%21=C6C5=CC=C%21C(N(C(CCCCCC)CCCCCC)C%20=O)=O,2032.95,PTB7-Th,5.29,3.72,1.57,O=C(OCC(CC)CCCC)C1=C(F)C2=C(C)SC(C3=CC4=C(C(C5=CC=C(CC(CC)CCCC)S5)=C(C=C(C)S6)C6=C4C7=CC=C(CC(CC)CCCC)S7)S3)=C2S1,124,72.9,1.7,1,2,CB,DIO,NA,,,ACS Appl. Mater. Interfaces,10.1021/acsami.8b01308
58,23,2018,1.85,1.85,5.38,0.39,0.88,9r,5.44,3.87,1.57,O=C(N(C(CCCCCC)CCCCCC)C1=O)C2=CC=C(C3=C4C=CC1C32)C5=C(C(S6)=CC(C6=C7CC(CC)CCCC)=C(CC(CC)CCCC)C8=C7C9=C(S8)C%10=C(CC(CC)CCCC)C%11=C(C(SC%12=C%13C(CC(CC)CCCC)=C%14C(C=C(C%15=CC%16C%17C%18=C%15C%19=CC=C(C(N%20C(CCCCCC)CCCCCC)=O)C%21=C%19C(C%18=CC=C%17C(N(C(CCCCCC)CCCCCC)C%16=O)=O)=CC=C%21C%20=O)S%14)=C%12CC(CC)CCCC)=C%13S%11)C(CC(CC)CCCC)=C%10S9)C=C%22C%23=C5C4=CC=C%23C(N(C(CCCCCC)CCCCCC)C%22=O)=O,2698.13,PTB7-Th,5.29,3.72,1.57,O=C(OCC(CC)CCCC)C1=C(F)C2=C(C)SC(C3=CC4=C(C(C5=CC=C(CC(CC)CCCC)S5)=C(C=C(C)S6)C6=C4C7=CC=C(CC(CC)CCCC)S7)S3)=C2S1,124,72.9,1.7,1,2,CB,DIO,NA,,,ACS Appl. Mater. Interfaces,10.1021/acsami.8b01308
59,23,2018,3.69,3.69,8.89,0.43,0.98,C9r,5.51,3.78,1.73,O=C(N(C(CCCCCC)CCCCCC)C1=O)C2=CC3=C(C4=C5C=CC1C42)C6=C(C7=C3SC8=C(CC(CC)CCCC)C9=C(C(CC(CC)CCCC)=C87)SC%10=C9SC%11=C(CC(CC)CCCC)C(C(SC%12=C%13C(CC(CC)CCCC)=C%14C(C%15=C(C(C=C%16C(N(C(CCCCCC)CCCCCC)C%17=O)=O)=C%18C%19=C%16C%17=CC=C%19C%20=CC=C(C%21=O)C%22C%20=C%18C%15=CC%22C(N%21C(CCCCCC)CCCCCC)=O)S%14)=C%12CC(CC)CCCC)=C%13S%23)=C%23C(CC(CC)CCCC)=C%11%10)C=C%24C%25=C6C5=CC=C%25C(N(C(CCCCCC)CCCCCC)C%24=O)=O,2694.1,PTB7-Th,5.29,3.72,1.57,O=C(OCC(CC)CCCC)C1=C(F)C2=C(C)SC(C3=CC4=C(C(C5=CC=C(CC(CC)CCCC)S5)=C(C=C(C)S6)C6=C4C7=CC=C(CC(CC)CCCC)S7)S3)=C2S1,124,72.9,1.7,1,2,CB,DIO,NA,,,ACS Appl. Mater. Interfaces,10.1021/acsami.8b01308
60,24,2018,9.14,8.92,15.18,0.5755,1.02,IDT-FBTR,5.47,3.65,1.82,CCCCCCC(C=C1)=CC=C1C2(C3=CC=C(CCCCCC)C=C3)C4=CC5=C(C(C6=C5SC(C7=CC(F)=C(C8=CC=C(/C=C9S/C(N(CCCCCCCC)C/9=O)=C(C#N)/C#N)S8)C%10=NSN=C%107)=C6)(C%11=CC=C(CCCCCC)C=C%11)C%12=CC=C(CCCCCC)C=C%12)C=C4C%13=C2C=C(C%14=CC(F)=C(C%15=NSN=C%14%15)C(S%16)=CC=C%16/C=C%17C(N(/C(S\%17)=C(C#N)/C#N)CCCCCCCC)=O)S%13,1950.71,PTB7-Th,5.22,3.64,1.58,O=C(OCC(CC)CCCC)C1=C(F)C2=C(C)SC(C3=CC4=C(C(C5=CC=C(CC(CC)CCCC)S5)=C(C=C(C)S6)C6=C4C7=CC=C(CC(CC)CCCC)S7)S3)=C2S1,124,72.9,1.7,1,1.5,DCB,CN,NA,,,ACS Appl. Mater. Interfaces,10.1021/acsami.8b04541
61,25,2018,9.12,9.03,16.62,0.6001,0.915,ITIC,5.61,4.02,1.59,CCCCCCC(C=C1)=CC=C1C2(C3=CC=C(CCCCCC)C=C3)C4=CC5=C(C(C6=C5SC7=C6SC(/C=C8C(C(C=CC=C9)=C9C\8=C(C#N)\C#N)=O)=C7)(C%10=CC=C(CCCCCC)C=C%10)C%11=CC=C(CCCCCC)C=C%11)C=C4C%12=C2C(SC(/C=C%13C(C(C=CC=C%14)=C%14C\%13=C(C#N)/C#N)=O)=C%15)=C%15S%12,1427.96,PTzBI-S,5.38,3.54,1.84,CC(SC1=C2C3=CC=C(SCC(CC)CCCC)S3)=CC1=C(C4=CC=C(SCC(CC)CCCC)S4)C5=C2C=C(S5)C6=CC=C(C(C7=NN(CCCCCCCC)N=C78)=C(C(C(N9CCCCCCCC)=O)=C8C%10=CC=C(C)S%10)C9=O)S6,38.88,21.6,1.8,1,1.5,DCB,NA,120,,,ACS Appl. Mater. Interfaces,10.1021/acsami.8b05700
62,25,2018,10.19,10.05,16.39,0.6772,0.918,ITIC,5.61,4.02,1.59,CCCCCCC(C=C1)=CC=C1C2(C3=CC=C(CCCCCC)C=C3)C4=CC5=C(C(C6=C5SC7=C6SC(/C=C8C(C(C=CC=C9)=C9C\8=C(C#N)\C#N)=O)=C7)(C%10=CC=C(CCCCCC)C=C%10)C%11=CC=C(CCCCCC)C=C%11)C=C4C%12=C2C(SC(/C=C%13C(C(C=CC=C%14)=C%14C\%13=C(C#N)/C#N)=O)=C%15)=C%15S%12,1427.96,PTzBI-Ph,5.43,3.58,1.85,CC(SC1=C2C3=CC=C(CC(CC)CCCC)C=C3)=CC1=C(C4=CC=C(CC(CC)CCCC)C=C4)C5=C2C=C(S5)C6=CC=C(C(C7=NN(CCCCCCCC)N=C78)=C(C(C(N9CCCCCCCC)=O)=C8C%10=CC=C(C)S%10)C9=O)S6,54.15,19,2.85,1,1,DCB,NA,120,,,ACS Appl. Mater. Interfaces,10.1021/acsami.8b05700
63,26,2018,4.86,4.85,8.53,0.6622,0.86,IDIC,5.7,3.82,1.88,O=C(C(C=CC=C1)=C1C/2=C(C#N)\C#N)C2=C/C(S3)=CC4=C3C5=C(C4(CCCCCC)CCCCCC)C=C6C(C(CCCCCC)(CCCCCC)C7=C6SC(/C=C8C(C(C=CC=C9)=C9C\8=C(C#N)/C#N)=O)=C7)=C5,1011.4,P1,5.17,2.9,2.27,FC1=C(C2=CC=C(C3=CC=C(C4=CC=C(C)S4)C=C3)S2)C5=NC(C6=CC(OCCCCCCCC)=C(OCCCCCCCC)C=C6)=C(C7=CC=C(OCCCCCCCC)C(OCCCCCCCC)=C7)N=C5C(C)=C1F,41.82,24.6,1.7,1,1,DCB,DIO,NA,,,ACS Appl. Mater. Interfaces,10.1021/acsami.8b04432
64,26,2018,7.75,7.73,13.15,0.6484,0.91,IDIC,5.7,3.82,1.88,O=C(C(C=CC=C1)=C1C/2=C(C#N)\C#N)C2=C/C(S3)=CC4=C3C5=C(C4(CCCCCC)CCCCCC)C=C6C(C(CCCCCC)(CCCCCC)C7=C6SC(/C=C8C(C(C=CC=C9)=C9C\8=C(C#N)/C#N)=O)=C7)=C5,1011.4,P2,5.33,2.94,2.39,FC1=C(C2=CC=C(C3=CC=C(C4=CC=C(C)S4)C=C3F)S2)C5=NC(C6=CC(OCCCCCCCC)=C(OCCCCCCCC)C=C6)=C(C7=CC=C(OCCCCCCCC)C(OCCCCCCCC)=C7)N=C5C(C)=C1F,67.83,32.3,2.1,1,1,DCB,DIO,NA,,,ACS Appl. Mater. Interfaces,10.1021/acsami.8b04432
65,26,2018,9.7,9.4,15.99,0.6089,1,IDIC,5.7,3.82,1.88,O=C(C(C=CC=C1)=C1C/2=C(C#N)\C#N)C2=C/C(S3)=CC4=C3C5=C(C4(CCCCCC)CCCCCC)C=C6C(C(CCCCCC)(CCCCCC)C7=C6SC(/C=C8C(C(C=CC=C9)=C9C\8=C(C#N)/C#N)=O)=C7)=C5,1011.4,P3,5.54,2.98,2.56,FC1=C(C2=CC=C(C3=CC(F)=C(C4=CC=C(C)S4)C=C3F)S2)C5=NC(C6=CC(OCCCCCCCC)=C(OCCCCCCCC)C=C6)=C(C7=CC=C(OCCCCCCCC)C(OCCCCCCCC)=C7)N=C5C(C)=C1F,92.4,38.5,2.4,1,1,DCB,DIO,NA,,,ACS Appl. Mater. Interfaces,10.1021/acsami.8b04432
66,26,2018,2.93,2.91,4.82,0.5743,1.06,IDIC,5.7,3.82,1.88,O=C(C(C=CC=C1)=C1C/2=C(C#N)\C#N)C2=C/C(S3)=CC4=C3C5=C(C4(CCCCCC)CCCCCC)C=C6C(C(CCCCCC)(CCCCCC)C7=C6SC(/C=C8C(C(C=CC=C9)=C9C\8=C(C#N)/C#N)=O)=C7)=C5,1011.4,P4,5.68,3.13,2.55,FC1=C(C2=CC=C(C3=C(F)C(F)=C(C4=CC=C(C)S4)C(F)=C3F)S2)C5=NC(C6=CC(OCCCCCCCC)=C(OCCCCCCCC)C=C6)=C(C7=CC=C(OCCCCCCCC)C(OCCCCCCCC)=C7)N=C5C(C)=C1F,83.16,29.7,2.8,1,1,DCB,DIO,NA,,,ACS Appl. Mater. Interfaces,10.1021/acsami.8b04432
67,27,2018,5.16,4.86,8.4,0.55,1.1,IDT2BR,5.52,3.87,1.65,CCCCCCC(C=C1)=CC=C1C2(C3=CC=C(CCCCCC)C=C3)C4=CC5=C(C(C6=C5SC(C(C7=NSN=C78)=CC=C8/C=C9SC(N(C/9=O)CCC)=S)=C6)(C%10=CC=C(CCCCCC)C=C%10)C%11=CC=C(CCCCCC)C=C%11)C=C4C%12=C2C=C(C%13=CC=C(/C=C%14C(N(CCC)C(S\%14)=S)=O)C%15=NSN=C%13%15)S%12,1546.25,PPDT2FBT,5.45,3.69,1.76,CC(S1)=CC=C1C2=C(OCC(CCCCCC)CCCCCCCC)C=C(C3=CC=C(C4=C(F)C(F)=C(C)C5=NSN=C45)S3)C(OCC(CCCCCCCC)CCCCCC)=C2,119.28,42.6,2.8,1,1.5,CB,NA,NA,,,ACS Appl. Mater. Interfaces,10.1021/acsami.8b06445
68,28,2018,5.57,5.25,12.13,0.57,0.76,PDI2,6.06,3.91,2.15,O=C(N(C(CCCCCC)CCCCCC)C1=O)C2=CC3=C4C(C(C=C5C(N(C(CCCCCC)CCCCCC)C6=O)=O)=C7C8=C5C6=CC=C8C9=CC=C(C(N(C(CCCCCC)CCCCCC)C%10=O)=O)C%11=C%10C=C4C7=C9%11)=C%12C=C%13C%14=C%15C%12=C3C(C2=C1C=C%16)=C%16C%15=CC=C%14C(N(C(CCCCCC)CCCCCC)C%13=O)=O,1530.1,PTB7-Th,5.12,3.6,1.52,O=C(OCC(CC)CCCC)C1=C(F)C2=C(C)SC(C3=CC4=C(C(C5=CC=C(CC(CC)CCCC)S5)=C(C=C(C)S6)C6=C4C7=CC=C(CC(CC)CCCC)S7)S3)=C2S1,124,72.9,1.7,1,1,DCB,NA,80,,,ACS Appl. Mater. Interfaces,10.1021/acsami.8b06126
69,28,2018,7.84,7.7,15.85,0.6255,0.777,FTPDI2,5.83,3.81,2.02,O=C(N(C(CCCCCC)CCCCCC)C1=O)C2=CC3=C4C(C(C=C5C(N(C(CCCCCC)CCCCCC)C6=O)=O)=C7C8=C5C6=CC=C8C9=C(C%10=CC(C%11=C(C%12=C%13C(C%14=C%15C(C%16=C%17C=CC%18=C%16C(C(N(C(CCCCCC)CCCCCC)C%18=O)=O)=C%15)=C%19C(C=C%20C%21=C%19C%17=CC=C%21C(N(C(CCCCCC)CCCCCC)C%20=O)=O)=C%14%22)=CC%23=C%12C(C(N(C(CCCCCC)CCCCCC)C%23=O)=O)=C%11)C%24=CC=C%25C%26=C%24C%13=C%22C=C%26C(N(C(CCCCCC)CCCCCC)C%25=O)=O)=CC(C%27=C(C%28=C%29C(C%30=C%31C(C%32=C%33C=CC%34=C%32C(C(N(C(CCCCCC)CCCCCC)C%34=O)=O)=C%31)=C%35C(C=C%36C%37=C%35C%33=CC=C%37C(N(C(CCCCCC)CCCCCC)C%36=O)=O)=C%30%38)=CC%39=C%28C(C(N(C(CCCCCC)CCCCCC)C%39=O)=O)=C%27)C%40=CC=C%41C%42=C%40C%29=C%38C=C%42C(N(C(CCCCCC)CCCCCC)C%41=O)=O)=C%10)C=C(C(N(C(CCCCCC)CCCCCC)C%43=O)=O)C%44=C%43C=C4C7=C9%44)=C%45C=C%46C%47=C%48C%45=C3C(C2=C1C=C%49)=C%49C%48=CC=C%47C(N(C(CCCCCC)CCCCCC)C%46=O)=O,4662.37,PTB7-Th,5.12,3.6,1.52,O=C(OCC(CC)CCCC)C1=C(F)C2=C(C)SC(C3=CC4=C(C(C5=CC=C(CC(CC)CCCC)S5)=C(C=C(C)S6)C6=C4C7=CC=C(CC(CC)CCCC)S7)S3)=C2S1,124,72.9,1.7,1,1,DCB,NA,80,,,ACS Appl. Mater. Interfaces,10.1021/acsami.8b06126
70,28,2018,8.28,8.17,16.77,0.6167,0.79,TPDI2,5.89,3.8,2.09,O=C(N(C(CCCCCC)CCCCCC)C1=O)C2=CC3=C4C(C(C=C5C(N(C(CCCCCC)CCCCCC)C6=O)=O)=C7C8=C5C6=CC(C9=C%10C(C%11=C(C%12=C%10C=C(C(N(C(CCCCCC)CCCCCC)C%13=O)=O)C%14=C%13C=C(C%15=C%16C(C%17=C%18C=CC%19=C%17C(C(N(C(CCCCCC)CCCCCC)C%19=O)=O)=C%16)=C%20C(C=C%21C%22=C%20C%18=CC=C%22C(N(C(CCCCCC)CCCCCC)C%21=O)=O)=C%15%23)C%24=C%12%14)C(C%24=C%23C=C%25C(N(C(CCCCCC)CCCCCC)C%26=O)=O)=C%25C%26=C%11)=C%27C(C%28=C(C%29=C%27C=C(C(N(C(CCCCCC)CCCCCC)C%30=O)=O)C%31=C%30C=C(C%32=C%33C(C%34=C%35C=CC%36=C%34C(C(N(C(CCCCCC)CCCCCC)C%36=O)=O)=C%33)=C%37C(C=C%38C%39=C%37C%35=CC=C%39C(N(C(CCCCCC)CCCCCC)C%38=O)=O)=C%32%40)C%41=C%29%31)C(C%41=C%40C=C%42C(N(C(CCCCCC)CCCCCC)C%43=O)=O)=C%42C%43=C%28)=C9%44)=C8C%45=C%44C=C(C(N(C(CCCCCC)CCCCCC)C%46=O)=O)C%47=C%46C=C4C7=C%45%47)=C%48C=C%49C%50=C%51C%48=C3C(C2=C1C=C%52)=C%52C%51=CC=C%50C(N(C(CCCCCC)CCCCCC)C%49=O)=O,4656.32,PTB7-Th,5.12,3.6,1.52,O=C(OCC(CC)CCCC)C1=C(F)C2=C(C)SC(C3=CC4=C(C(C5=CC=C(CC(CC)CCCC)S5)=C(C=C(C)S6)C6=C4C7=CC=C(CC(CC)CCCC)S7)S3)=C2S1,124,72.9,1.7,1,1,DCB,NA,80,,,ACS Appl. Mater. Interfaces,10.1021/acsami.8b06126
71,29,2016,6.4,5.81,14.6,0.54,0.81,hPDI3,6.2,3.9,2.3,O=C(N(C(CCCCCC)CCCCCC)C1=O)C2=CC3=C4C(C(C=C5C(N(C(CCCCCC)CCCCCC)C6=O)=O)=C7C8=C5C6=CC9=C(C(C=C%10C(N(C(CCCCCC)CCCCCC)C%11=O)=O)=C%12C%13=C%10C%11=CC=C%13C%14=CC=C(C(N(C(CCCCCC)CCCCCC)C%15=O)=O)C%16=C%15C=C%17C%12=C%14%16)C%17=C%18C(C%19=C7C4=CC%20=C%19C(C(N(C(CCCCCC)CCCCCC)C%20=O)=O)=C%18)=C98)=C%21C=C%22C%23=C%24C%21=C3C(C2=C1C=C%25)=C%25C%24=CC=C%23C(N(C(CCCCCC)CCCCCC)C%22=O)=O,2305.15,PTB7-Th,5.1,3.6,1.5,O=C(OCC(CC)CCCC)C1=C(F)C2=C(C)SC(C3=CC4=C(C(C5=CC=C(CC(CC)CCCC)S5)=C(C=C(C)S6)C6=C4C7=CC=C(CC(CC)CCCC)S7)S3)=C2S1,124,72.9,1.7,1,2,CB,DIO,NA,100,,ACS Energy Lett.,10.1021/acsenergylett.6b00291
72,30,2017,11.1,10.7,17.2,0.63,1.02,EH-IDTBR,5.51,3.88,1.63,O=C(/C(S1)=C/C(C2=NSN=C32)=CC=C3C(S4)=CC5=C4C6=CC(C(CC(CC)CCCC)(CC(CC)CCCC)C7=C8SC(C9=CC=C(/C=C%10SC(N(CC)C\%10=O)=S)C%11=NSN=C9%11)=C7)=C8C=C6C5(CC(CC)CCCC)CC(CC)CCCC)N(CC)C1=S,1326.02,PffBT4T,5.34,3.69,1.65,CC1=C(CC(CCCCCCCC)CCCCCCCCCC)C=C(C2=C(F)C(F)=C(C3=CC(CC(CCCCCCCCCC)CCCCCCCC)=C(C4=CC=C(C5=CC=C(C)S5)S4)S3)C6=NSN=C62)S1,93.7,47.5,1.972631579,1,1,MS,NA,NA,80,,ACS Energy Lett.,10.1021/acsenergylett.7b00390