ID,Ref,year,PCE_max(%),PCE_ave(%),Jsc(mA/cm2),FF,Voc(V),Nickname(n),-HOMO_n(eV),-LUMO_n(eV),Eg_n(eV),n(SMILES),M (g/mol),Nickname(p),-HOMO_p(eV),-LUMO_p(eV),Eg_p(eV),p(SMILES),Mw (kg/mol),Mn(kg/mol),PDI,p/n ratio (p),p/n ratio (n),Solvent,Additive,TA (oC),thick (nm),,Journal,DOI
1149,504,2019,12.05,11.71,18.17,0.693,0.93,TTTIC,5.69,3.9,1.79,CCCCCCC(C=C1)=CC=C1C2(C3=CC=C(CCCCCC)C=C3)C4=CC5=C(C(C6=C5SC7=C6SC(/C=C8C(C9=CSC=C9C\8=C(C#N)\C#N)=O)=C7)(C%10=CC=C(CCCCCC)C=C%10)C%11=CC=C(CCCCCC)C=C%11)C=C4C%12=C2C(SC(/C=C%13C(C%14=CSC=C%14C\%13=C(C#N)/C#N)=O)=C%15)=C%15S%12,1440,PM6,5.45,3.65,1.8,CC(SC1=C2C3=CC(F)=C(CC(CC)CCCC)S3)=CC1=C(C4=CC(F)=C(CC(CC)CCCC)S4)C5=C2C=C(S5)C6=CC=C(C7=C8C(C(C9=C(CC(CC)CCCC)SC(CC(CC)CCCC)=C9C8=O)=O)=C(C%10=CC=C(C)S%10)S7)S6,38.6,19.3,2,1,1,CB,DIO,100,100,,,
1150,504,2019,11.19,10.84,18.13,0.643,0.93,TSeTIC,5.65,3.91,1.74,CCCCCCC(C=C1)=CC=C1C2(C3=CC=C(CCCCCC)C=C3)C4=CC5=C(C(C6=C5SC7=C6[Se]C(/C=C8C(C9=CSC=C9C\8=C(C#N)\C#N)=O)=C7)(C%10=CC=C(CCCCCC)C=C%10)C%11=CC=C(CCCCCC)C=C%11)C=C4C%12=C2C([Se]C(/C=C%13C(C%14=CSC=C%14C\%13=C(C#N)/C#N)=O)=C%15)=C%15S%12,1533.82,PM6,5.45,3.65,1.8,CC(SC1=C2C3=CC(F)=C(CC(CC)CCCC)S3)=CC1=C(C4=CC(F)=C(CC(CC)CCCC)S4)C5=C2C=C(S5)C6=CC=C(C7=C8C(C(C9=C(CC(CC)CCCC)SC(CC(CC)CCCC)=C9C8=O)=O)=C(C%10=CC=C(C)S%10)S7)S6,38.6,19.3,2,1,1,CB,DIO,NA,100,,,
1151,504,2019,13.71,13.34,19.31,0.751,0.92,TSeTIC,5.65,3.91,1.74,CCCCCCC(C=C1)=CC=C1C2(C3=CC=C(CCCCCC)C=C3)C4=CC5=C(C(C6=C5SC7=C6[Se]C(/C=C8C(C9=CSC=C9C\8=C(C#N)\C#N)=O)=C7)(C%10=CC=C(CCCCCC)C=C%10)C%11=CC=C(CCCCCC)C=C%11)C=C4C%12=C2C([Se]C(/C=C%13C(C%14=CSC=C%14C\%13=C(C#N)/C#N)=O)=C%15)=C%15S%12,1533.82,PM6,5.45,3.65,1.8,CC(SC1=C2C3=CC(F)=C(CC(CC)CCCC)S3)=CC1=C(C4=CC(F)=C(CC(CC)CCCC)S4)C5=C2C=C(S5)C6=CC=C(C7=C8C(C(C9=C(CC(CC)CCCC)SC(CC(CC)CCCC)=C9C8=O)=O)=C(C%10=CC=C(C)S%10)S7)S6,38.6,19.3,2,1,1,CB,DIO,100,100,,,
1152,505,2019,12.12,11.82,19.33,0.7046,0.89,IT-4Cl,5.75,4.27,1.48,CCCCCCC(C=C1)=CC=C1C2(C3=CC=C(CCCCCC)C=C3)C4=CC5=C(C(C6=C5SC7=C6SC(/C=C8C(C(C=C(Cl)C(Cl)=C9)=C9C\8=C(C#N)\C#N)=O)=C7)(C%10=CC=C(CCCCCC)C=C%10)C%11=CC=C(CCCCCC)C=C%11)C=C4C%12=C2C(SC(/C=C%13C(C(C=C(Cl)C(Cl)=C%14)=C%14C\%13=C(C#N)/C#N)=O)=C%15)=C%15S%12,1565.72,PTQ10,5.54,3.64,1.9,FC1=C(C2=CC=C(C)S2)C3=NC(OCC(CCCCCC)CCCCCCCC)=CN=C3C(C)=C1F,82.11,39.1,2.1,1,1,CF,NA,NA,,,,
1153,505,2019,13.04,12.83,19.61,0.7301,0.91,IT-4Cl,5.75,4.27,1.48,CCCCCCC(C=C1)=CC=C1C2(C3=CC=C(CCCCCC)C=C3)C4=CC5=C(C(C6=C5SC7=C6SC(/C=C8C(C(C=C(Cl)C(Cl)=C9)=C9C\8=C(C#N)\C#N)=O)=C7)(C%10=CC=C(CCCCCC)C=C%10)C%11=CC=C(CCCCCC)C=C%11)C=C4C%12=C2C(SC(/C=C%13C(C(C=C(Cl)C(Cl)=C%14)=C%14C\%13=C(C#N)/C#N)=O)=C%15)=C%15S%12,1565.72,PTQ10,5.54,3.64,1.9,FC1=C(C2=CC=C(C)S2)C3=NC(OCC(CCCCCC)CCCCCCCC)=CN=C3C(C)=C1F,82.11,39.1,2.1,1,1,CF/MS,NA,NA,,,,
1154,506,2019,9.31,9,14.83,0.695,0.88,BTOIPC,5.47,4.02,1.45,CCCCCCC1=CC=C(C(C2=CC=C(CCCCCC)C=C2)(C3=C4SC5=C(OCC(CC)CCCC)C6=C(C(OCC(CC)CCCC)=C35)SC(C7=C8C=C(/C=C9C%10=C(C=CC=C%10)C%11=C/9N=C(C#N)C(C#N)=N%11)S7)=C6C8(C%12=CC=C(CCCCCC)C=C%12)C%13=CC=C(CCCCCC)C=C%13)C%14=C4SC(/C=C%15C%16=C(C=CC=C%16)C%17=C/%15N=C(C#N)C(C#N)=N%17)=C%14)C=C1,1732.44,PBDB-T,5.33,3.53,1.8,CC(SC1=C2C3=CC=C(CC(CC)CCCC)S3)=CC1=C(C4=CC=C(CC(CC)CCCC)S4)C5=C2C=C(S5)C6=CC=C(C7=C8C(C(C9=C(CC(CC)CCCC)SC(CC(CC)CCCC)=C9C8=O)=O)=C(C%10=CC=C(C)S%10)S7)S6,117,58.5,2,1,1,CB,DIO,100,100,,,
1155,506,2019,10.76,10.63,17.72,0.701,0.85,BT-IC,5.39,3.96,1.43,O=C1C2=C(C=CC=C2)C(/C1=C/C3=CC(C(C4=CC=C(CCCCCC)C=C4)(C5=C6SC7=C(OCC(CC)CCCC)C8=C(C(OCC(CC)CCCC)=C57)SC(C9=C%10C=C(/C=C%11/C(C(C=CC=C%12)=C%12C%11=O)=C(C#N)\C#N)S9)=C8C%10(C%13=CC=C(CCCCCC)C=C%13)C%14=CC=C(CCCCCC)C=C%14)C%15=CC=C(CCCCCC)C=C%15)=C6S3)=C(C#N)/C#N,1684.39,PBDB-T,5.33,3.53,1.8,CC(SC1=C2C3=CC=C(CC(CC)CCCC)S3)=CC1=C(C4=CC=C(CC(CC)CCCC)S4)C5=C2C=C(S5)C6=CC=C(C7=C8C(C(C9=C(CC(CC)CCCC)SC(CC(CC)CCCC)=C9C8=O)=O)=C(C%10=CC=C(C)S%10)S7)S6,117,58.5,2,1,1,CB,DIO,100,100,,,
1156,507,2019,10.2,10.2,16.77,0.6877,0.87,ITIC,5.61,4.02,1.59,CCCCCCC(C=C1)=CC=C1C2(C3=CC=C(CCCCCC)C=C3)C4=CC5=C(C(C6=C5SC7=C6SC(/C=C8C(C(C=CC=C9)=C9C\8=C(C#N)\C#N)=O)=C7)(C%10=CC=C(CCCCCC)C=C%10)C%11=CC=C(CCCCCC)C=C%11)C=C4C%12=C2C(SC(/C=C%13C(C(C=CC=C%14)=C%14C\%13=C(C#N)/C#N)=O)=C%15)=C%15S%12,1427.96,PBDB-T,5.33,3.53,1.8,CC(SC1=C2C3=CC=C(CC(CC)CCCC)S3)=CC1=C(C4=CC=C(CC(CC)CCCC)S4)C5=C2C=C(S5)C6=CC=C(C7=C8C(C(C9=C(CC(CC)CCCC)SC(CC(CC)CCCC)=C9C8=O)=O)=C(C%10=CC=C(C)S%10)S7)S6,117,58.5,2,1,1,CB,DIO,160,,,,
1157,508,2019,6.15,6.15,10.99,0.5281,0.98,ITIC,5.61,4.02,1.59,CCCCCCC(C=C1)=CC=C1C2(C3=CC=C(CCCCCC)C=C3)C4=CC5=C(C(C6=C5SC7=C6SC(/C=C8C(C(C=CC=C9)=C9C\8=C(C#N)\C#N)=O)=C7)(C%10=CC=C(CCCCCC)C=C%10)C%11=CC=C(CCCCCC)C=C%11)C=C4C%12=C2C(SC(/C=C%13C(C(C=CC=C%14)=C%14C\%13=C(C#N)/C#N)=O)=C%15)=C%15S%12,1427.96,PBDD-CH,5.52,3.67,1.85,CC(SC1=C2C3=CC=C(CC(CC)CCCC)S3)=CC1=C(C4=CC=C(CC(CC)CCCC)S4)C5=C2C=C(S5)C6=C(C7CCCCC7)C=C(C8=C9C(C(C%10=C(CC(CC)CCCC)SC(CC(CC)CCCC)=C%10C9=O)=O)=C(C%11=CC(C%12CCCCC%12)=C(C)S%11)S8)S6,99.17,50.06,1.981022773,1,1,CB,NA,NA,130,,,
1158,508,2019,8.21,8.21,13.64,0.6017,0.95,ITIC,5.61,4.02,1.59,CCCCCCC(C=C1)=CC=C1C2(C3=CC=C(CCCCCC)C=C3)C4=CC5=C(C(C6=C5SC7=C6SC(/C=C8C(C(C=CC=C9)=C9C\8=C(C#N)\C#N)=O)=C7)(C%10=CC=C(CCCCCC)C=C%10)C%11=CC=C(CCCCCC)C=C%11)C=C4C%12=C2C(SC(/C=C%13C(C(C=CC=C%14)=C%14C\%13=C(C#N)/C#N)=O)=C%15)=C%15S%12,1427.96,PBDD-CH,5.52,3.67,1.85,CC(SC1=C2C3=CC=C(CC(CC)CCCC)S3)=CC1=C(C4=CC=C(CC(CC)CCCC)S4)C5=C2C=C(S5)C6=C(C7CCCCC7)C=C(C8=C9C(C(C%10=C(CC(CC)CCCC)SC(CC(CC)CCCC)=C%10C9=O)=O)=C(C%11=CC(C%12CCCCC%12)=C(C)S%11)S8)S6,99.17,50.06,1.981022773,1,1,CB,DIO,120,130,,,
1159,508,2019,8.96,8.96,14.53,0.6138,0.98,ITIC,5.61,4.02,1.59,CCCCCCC(C=C1)=CC=C1C2(C3=CC=C(CCCCCC)C=C3)C4=CC5=C(C(C6=C5SC7=C6SC(/C=C8C(C(C=CC=C9)=C9C\8=C(C#N)\C#N)=O)=C7)(C%10=CC=C(CCCCCC)C=C%10)C%11=CC=C(CCCCCC)C=C%11)C=C4C%12=C2C(SC(/C=C%13C(C(C=CC=C%14)=C%14C\%13=C(C#N)/C#N)=O)=C%15)=C%15S%12,1427.96,PBDD-CH-S,5.47,3.62,1.85,CC(SC1=C2C3=CC=C(SCC(CC)CCCC)S3)=CC1=C(C4=CC=C(SCC(CC)CCCC)S4)C5=C2C=C(S5)C6=C(C7CCCCC7)C=C(C8=C9C(C(C%10=C(CC(CC)CCCC)SC(CC(CC)CCCC)=C%10C9=O)=O)=C(C%11=CC(C%12CCCCC%12)=C(C)S%11)S8)S6,131.76,58.5,2.252307692,1,1,CB,NA,NA,148,,,
1160,508,2019,9.63,9.63,14.73,0.6583,0.96,ITIC,5.61,4.02,1.59,CCCCCCC(C=C1)=CC=C1C2(C3=CC=C(CCCCCC)C=C3)C4=CC5=C(C(C6=C5SC7=C6SC(/C=C8C(C(C=CC=C9)=C9C\8=C(C#N)\C#N)=O)=C7)(C%10=CC=C(CCCCCC)C=C%10)C%11=CC=C(CCCCCC)C=C%11)C=C4C%12=C2C(SC(/C=C%13C(C(C=CC=C%14)=C%14C\%13=C(C#N)/C#N)=O)=C%15)=C%15S%12,1427.96,PBDD-CH-S,5.47,3.62,1.85,CC(SC1=C2C3=CC=C(SCC(CC)CCCC)S3)=CC1=C(C4=CC=C(SCC(CC)CCCC)S4)C5=C2C=C(S5)C6=C(C7CCCCC7)C=C(C8=C9C(C(C%10=C(CC(CC)CCCC)SC(CC(CC)CCCC)=C%10C9=O)=O)=C(C%11=CC(C%12CCCCC%12)=C(C)S%11)S8)S6,131.76,58.5,2.252307692,1,1,CB,DIO,120,148,,,
1161,509,2019,5.85,5.6,11.58,0.4743,1.019,ITC6-IC,5.73,3.92,1.81,CCCCCCC(C=C1)=CC=C1C2(C3=CC=C(CCCCCC)C=C3)C4=CC5=C(C(C6=C5SC7=C6SC(/C=C8C(C(C=CC=C9)=C9C\8=C(C#N)\C#N)=O)=C7CCCCCC)(C%10=CC=C(CCCCCC)C=C%10)C%11=CC=C(CCCCCC)C=C%11)C=C4C%12=C2C(SC(/C=C%13C(C(C=CC=C%14)=C%14C\%13=C(C#N)/C#N)=O)=C%15CCCCCC)=C%15S%12,1596.28,PM7,5.52,3.55,1.97,CC(SC1=C2C3=CC(Cl)=C(CC(CC)CCCC)S3)=CC1=C(C4=CC(Cl)=C(CC(CC)CCCC)S4)C5=C2C=C(S5)C6=CC=C(C7=C8C(C(C9=C(CC(CC)CCCC)SC(CC(CC)CCCC)=C9C8=O)=O)=C(C%10=CC=C(C)S%10)S7)S6,44.88,25.5,1.76,1,1,CB,NA,NA,,,,
1162,509,2019,8.21,7.98,13.48,0.5865,1.009,ITC6-IC,5.73,3.92,1.81,CCCCCCC(C=C1)=CC=C1C2(C3=CC=C(CCCCCC)C=C3)C4=CC5=C(C(C6=C5SC7=C6SC(/C=C8C(C(C=CC=C9)=C9C\8=C(C#N)\C#N)=O)=C7CCCCCC)(C%10=CC=C(CCCCCC)C=C%10)C%11=CC=C(CCCCCC)C=C%11)C=C4C%12=C2C(SC(/C=C%13C(C(C=CC=C%14)=C%14C\%13=C(C#N)/C#N)=O)=C%15CCCCCC)=C%15S%12,1596.28,PM7,5.52,3.55,1.97,CC(SC1=C2C3=CC(Cl)=C(CC(CC)CCCC)S3)=CC1=C(C4=CC(Cl)=C(CC(CC)CCCC)S4)C5=C2C=C(S5)C6=CC=C(C7=C8C(C(C9=C(CC(CC)CCCC)SC(CC(CC)CCCC)=C9C8=O)=O)=C(C%10=CC=C(C)S%10)S7)S6,44.88,25.5,1.76,1,1,CB,DIO,100,100,,,
1163,509,2019,10.24,10.04,18.03,0.6328,0.88,IT-4F,5.77,4.03,1.74,CCCCCCC(C=C1)=CC=C1C2(C3=CC=C(CCCCCC)C=C3)C4=CC5=C(C(C6=C5SC7=C6SC(/C=C8C(C(C=C(F)C(F)=C9)=C9C\8=C(C#N)\C#N)=O)=C7)(C%10=CC=C(CCCCCC)C=C%10)C%11=CC=C(CCCCCC)C=C%11)C=C4C%12=C2C(SC(/C=C%13C(C(C=C(F)C(F)=C%14)=C%14C\%13=C(C#N)/C#N)=O)=C%15)=C%15S%12,1499.92,PM7,5.52,3.55,1.97,CC(SC1=C2C3=CC(Cl)=C(CC(CC)CCCC)S3)=CC1=C(C4=CC(Cl)=C(CC(CC)CCCC)S4)C5=C2C=C(S5)C6=CC=C(C7=C8C(C(C9=C(CC(CC)CCCC)SC(CC(CC)CCCC)=C9C8=O)=O)=C(C%10=CC=C(C)S%10)S7)S6,44.88,25.5,1.76,1,1,CB,DIO,100,100,,,
1164,509,2019,12.48,12.16,20.08,0.706,0.858,IT-4F,5.77,4.03,1.74,CCCCCCC(C=C1)=CC=C1C2(C3=CC=C(CCCCCC)C=C3)C4=CC5=C(C(C6=C5SC7=C6SC(/C=C8C(C(C=C(F)C(F)=C9)=C9C\8=C(C#N)\C#N)=O)=C7)(C%10=CC=C(CCCCCC)C=C%10)C%11=CC=C(CCCCCC)C=C%11)C=C4C%12=C2C(SC(/C=C%13C(C(C=C(F)C(F)=C%14)=C%14C\%13=C(C#N)/C#N)=O)=C%15)=C%15S%12,1499.92,PM7,5.52,3.55,1.97,CC(SC1=C2C3=CC(Cl)=C(CC(CC)CCCC)S3)=CC1=C(C4=CC(Cl)=C(CC(CC)CCCC)S4)C5=C2C=C(S5)C6=CC=C(C7=C8C(C(C9=C(CC(CC)CCCC)SC(CC(CC)CCCC)=C9C8=O)=O)=C(C%10=CC=C(C)S%10)S7)S6,44.88,25.5,1.76,1,1,CB,DIO,100,100,,,
1165,509,2019,12.1,11.96,19.62,0.6352,0.96,ITC6-4F,5.75,4.17,1.58,CCCCCCC(C=C1)=CC=C1C2(C3=CC=C(CCCCCC)C=C3)C4=CC5=C(C(C6=C5SC7=C6SC(/C=C8C(C(C=C(F)C(F)=C9)=C9C\8=C(C#N)\C#N)=O)=C7CCCCCC)(C%10=CC=C(CCCCCC)C=C%10)C%11=CC=C(CCCCCC)C=C%11)C=C4C%12=C2C(SC(/C=C%13C(C(C=C(F)C(F)=C%14)=C%14C\%13=C(C#N)/C#N)=O)=C%15CCCCCC)=C%15S%12,1668.24,PM7,5.52,3.55,1.97,CC(SC1=C2C3=CC(Cl)=C(CC(CC)CCCC)S3)=CC1=C(C4=CC(Cl)=C(CC(CC)CCCC)S4)C5=C2C=C(S5)C6=CC=C(C7=C8C(C(C9=C(CC(CC)CCCC)SC(CC(CC)CCCC)=C9C8=O)=O)=C(C%10=CC=C(C)S%10)S7)S6,44.88,25.5,1.76,1,1.25,CB,NA,NA,100,,,
1166,509,2019,14.47,14.32,21.87,0.7292,0.898,ITC6-4F,5.75,4.17,1.58,CCCCCCC(C=C1)=CC=C1C2(C3=CC=C(CCCCCC)C=C3)C4=CC5=C(C(C6=C5SC7=C6SC(/C=C8C(C(C=C(F)C(F)=C9)=C9C\8=C(C#N)\C#N)=O)=C7CCCCCC)(C%10=CC=C(CCCCCC)C=C%10)C%11=CC=C(CCCCCC)C=C%11)C=C4C%12=C2C(SC(/C=C%13C(C(C=C(F)C(F)=C%14)=C%14C\%13=C(C#N)/C#N)=O)=C%15CCCCCC)=C%15S%12,1668.24,PM7,5.52,3.55,1.97,CC(SC1=C2C3=CC(Cl)=C(CC(CC)CCCC)S3)=CC1=C(C4=CC(Cl)=C(CC(CC)CCCC)S4)C5=C2C=C(S5)C6=CC=C(C7=C8C(C(C9=C(CC(CC)CCCC)SC(CC(CC)CCCC)=C9C8=O)=O)=C(C%10=CC=C(C)S%10)S7)S6,44.88,25.5,1.76,1,1.25,CB,CN/DIO,150,100,,,
1167,510,2019,4.51,4.29,8.45,0.49,1.03,PPDI-O,5.76,3.8,1.96,O=C(N(C(CCCCC)CCCCC)C1=O)C2=CC=C(C3=C4C5=CC1C32)C6=C(C7=CC=C(C8=C(C9=CC=C(C%10=CC%11C%12C%13=C%10C%14=CC=C(C(N%15C(CCCCC)CCCCC)=O)C%16=C%14C(C%13=C%17C=C%12C(N(C(CCCCC)CCCCC)C%11=O)=O)=C(OC%17(C)C)C=C%16C%15=O)C=C9)N=C(C%18=CC=C(C%19=CC%20C%21C%22=C%19C%23=CC=C(C(N%24C(CCCCC)CCCCC)=O)C%25=C%23C(C%22=C(C(C)(C)O%26)C=C%21C(N(C(CCCCC)CCCCC)C%20=O)=O)=C%26C=C%25C%24=O)C=C%18)C(C%27=CC=C(C%28=CC%29C%30C%31=C%28C%32=CC=C(C(N%33C(CCCCC)CCCCC)=O)C%34=C%32C(C%31=C%35C=C%30C(N(C(CCCCC)CCCCC)C%29=O)=O)=C(OC%35(C)C)C=C%34C%33=O)C=C%27)=N8)C=C7)C=C%36C%37=C6C4=C(C(C)(C)O5)C=C%37C(N(C(CCCCC)CCCCC)C%36=O)=O,3404.53,PDBT-T1,5.36,3.43,1.93,CC1=CC=C(C(S2)=C3C(C(C4=C(CC(CCCC)CC)SC(CC(CCCC)CC)=C4C3=O)=O)=C2C5=CC=C(C6=CC7=C(C8=C(C9=CC=C(CCCCCCCC)S9)C(SC%10=C%11SC(C)=C%10)=C%11C(C%12=CC=C(CCCCCCCC)S%12)=C8S7)S6)S5)S1,44.88,25.5,1.76,1,1,DCB,DIO,100,95,,,
1168,510,2019,7.47,7.21,10.5,0.65,1.05,PPDI-Se,5.9,3.74,2.16,O=C(N(C(CCCCC)CCCCC)C1=O)C2=CC=C(C3=C4C5=CC1C32)C6=C(C7=CC=C(C8=C(C9=CC=C(C%10=CC%11C%12C%13=C%10C%14=CC=C(C(N%15C(CCCCC)CCCCC)=O)C%16=C%14C(C%13=C([Se]%17)C=C%12C(N(C(CCCCC)CCCCC)C%11=O)=O)=C%17C=C%16C%15=O)C=C9)N=C(C%18=CC=C(C%19=CC%20C%21C%22=C%19C%23=CC=C(C(N%24C(CCCCC)CCCCC)=O)C%25=C%23C(C%22=C%26C=C%21C(N(C(CCCCC)CCCCC)C%20=O)=O)=C([Se]%26)C=C%25C%24=O)C=C%18)C(C%27=CC=C(C%28=CC%29C%30C%31=C%28C%32=CC=C(C(N%33C(CCCCC)CCCCC)=O)C%34=C%32C(C%31=C%35C=C%30C(N(C(CCCCC)CCCCC)C%29=O)=O)=C([Se]%35)C=C%34C%33=O)C=C%27)=N8)C=C7)C=C%36C%37=C6C4=C([Se]5)C=C%37C(N(C(CCCCC)CCCCC)C%36=O)=O,3488.1,PDBT-T1,5.36,3.43,1.93,CC1=CC=C(C(S2)=C3C(C(C4=C(CC(CCCC)CC)SC(CC(CCCC)CC)=C4C3=O)=O)=C2C5=CC=C(C6=CC7=C(C8=C(C9=CC=C(CCCCCCCC)S9)C(SC%10=C%11SC(C)=C%10)=C%11C(C%12=CC=C(CCCCCCCC)S%12)=C8S7)S6)S5)S1,44.88,25.5,1.76,1,1,DCB,DIO,100,95,,,
1169,511,2019,9.7,9.7,15.5,0.714,0.88,ITIC,5.61,4.02,1.59,CCCCCCC(C=C1)=CC=C1C2(C3=CC=C(CCCCCC)C=C3)C4=CC5=C(C(C6=C5SC7=C6SC(/C=C8C(C(C=CC=C9)=C9C\8=C(C#N)\C#N)=O)=C7)(C%10=CC=C(CCCCCC)C=C%10)C%11=CC=C(CCCCCC)C=C%11)C=C4C%12=C2C(SC(/C=C%13C(C(C=CC=C%14)=C%14C\%13=C(C#N)/C#N)=O)=C%15)=C%15S%12,1427.96,PBDB-T,5.33,3.53,1.8,CC(SC1=C2C3=CC=C(CC(CC)CCCC)S3)=CC1=C(C4=CC=C(CC(CC)CCCC)S4)C5=C2C=C(S5)C6=CC=C(C7=C8C(C(C9=C(CC(CC)CCCC)SC(CC(CC)CCCC)=C9C8=O)=O)=C(C%10=CC=C(C)S%10)S7)S6,117,58.5,2,1,1,CB,NA,NA,100,,,
1170,511,2019,15.4,15.3,25.2,0.77,0.8,BTP-4F,5.65,4.02,1.63,CCCCC(CN1C2=C(C3=C1C(SC(/C=C4/C(C5=C(C4=O)C=C(F)C(F)=C5)=C(C#N)\C#N)=C6CCCCCCCCCCC)=C6S3)C7=NSN=C7C8=C2N(C9=C8SC%10=C9SC(/C=C%11C(C(C=C(F)C(F)=C%12)=C%12C\%11=C(C#N)\C#N)=O)=C%10CCCCCCCCCCC)CC(CCCC)CC)CC,1451.94,PBDB-T,5.33,3.53,1.8,CC(SC1=C2C3=CC=C(CC(CC)CCCC)S3)=CC1=C(C4=CC=C(CC(CC)CCCC)S4)C5=C2C=C(S5)C6=CC=C(C7=C8C(C(C9=C(CC(CC)CCCC)SC(CC(CC)CCCC)=C9C8=O)=O)=C(C%10=CC=C(C)S%10)S7)S6,117,58.5,2,1,1,CF,CN,NA,130,,,
1171,512,2019,11.15,10.8,16.8,0.725,0.916,ITIC,5.61,4.02,1.59,CCCCCCC(C=C1)=CC=C1C2(C3=CC=C(CCCCCC)C=C3)C4=CC5=C(C(C6=C5SC7=C6SC(/C=C8C(C(C=CC=C9)=C9C\8=C(C#N)\C#N)=O)=C7)(C%10=CC=C(CCCCCC)C=C%10)C%11=CC=C(CCCCCC)C=C%11)C=C4C%12=C2C(SC(/C=C%13C(C(C=CC=C%14)=C%14C\%13=C(C#N)/C#N)=O)=C%15)=C%15S%12,1427.96,PBDB-T,5.33,3.53,1.8,CC(SC1=C2C3=CC=C(CC(CC)CCCC)S3)=CC1=C(C4=CC=C(CC(CC)CCCC)S4)C5=C2C=C(S5)C6=CC=C(C7=C8C(C(C9=C(CC(CC)CCCC)SC(CC(CC)CCCC)=C9C8=O)=O)=C(C%10=CC=C(C)S%10)S7)S6,117,58.5,2,1,1,CB,DIO,NA,,,,
1172,513,2019,6.33,5.99,11.58,0.525,0.986,ITCT,5.65,4.02,1.63,CCCCCCC(C=C1)=CC=C1C2(C3=CC=C(CCCCCC)C=C3)C4=CC5=C(C(C6=C5SC7=C6SC(/C=C8C(C9=CSC=C9C\8=C(C#N)\C#N)=O)=C7)(C%10=CC=C(CCCCCC)C=C%10)C%11=CC=C(CCCCCC)C=C%11)C=C4C%12=C2C(SC(/C=C%13C(C%14=CSC=C%14C\%13=C(C#N)/C#N)=O)=C%15)=C%15S%12,1440,PBDB-T,5.33,3.53,1.8,CC(SC1=C2C3=CC=C(CC(CC)CCCC)S3)=CC1=C(C4=CC=C(CC(CC)CCCC)S4)C5=C2C=C(S5)C6=CC=C(C7=C8C(C(C9=C(CC(CC)CCCC)SC(CC(CC)CCCC)=C9C8=O)=O)=C(C%10=CC=C(C)S%10)S7)S6,117,58.5,2,1,1,CF,DIO,NA,,,,
1173,513,2019,11.27,10.99,17.88,0.723,0.85,IT-T-IC,5.33,3.92,1.41,CCCCCCC(C=C1)=CC=C1C2(C3=CC=C(CCCCCC)C=C3)C4=CC5=C(C(C6=C5SC7=C6SC(C8=CC(CC(CC)CCCC)=C(/C=C9C(C(C=CC=C%10)=C%10C\9=C(C#N)\C#N)=O)S8)=C7)(C%11=CC=C(CCCCCC)C=C%11)C%12=CC=C(CCCCCC)C=C%12)C=C4C%13=C2C(SC(C%14=CC(CC(CC)CCCC)=C(/C=C%15C(C(C=CC=C%16)=C%16C\%15=C(C#N)/C#N)=O)S%14)=C%17)=C%17S%13,1816.63,PBDB-T,5.33,3.53,1.8,CC(SC1=C2C3=CC=C(CC(CC)CCCC)S3)=CC1=C(C4=CC=C(CC(CC)CCCC)S4)C5=C2C=C(S5)C6=CC=C(C7=C8C(C(C9=C(CC(CC)CCCC)SC(CC(CC)CCCC)=C9C8=O)=O)=C(C%10=CC=C(C)S%10)S7)S6,117,58.5,2,1,1,CF,DIO,NA,,,,
1174,514,2019,0.21,0.17,0.85,0.2,1,IT-4F,5.66,4.21,1.45,CCCCCCC(C=C1)=CC=C1C2(C3=CC=C(CCCCCC)C=C3)C4=CC5=C(C(C6=C5SC7=C6SC(/C=C8C(C(C=C(F)C(F)=C9)=C9C\8=C(C#N)\C#N)=O)=C7)(C%10=CC=C(CCCCCC)C=C%10)C%11=CC=C(CCCCCC)C=C%11)C=C4C%12=C2C(SC(/C=C%13C(C(C=C(F)C(F)=C%14)=C%14C\%13=C(C#N)/C#N)=O)=C%15)=C%15S%12,1499.92,PDB-1,5.65,3.68,1.97,CC1=C(C(C2=C(CC(CC)CCCC)SC(CC(CC)CCCC)=C2C3=O)=O)C3=C(C4=CC5=C(C(C6=CC=C(CC(CC)CCCC)S6)=C7C=C(C)SC7=C5C8=CC=C(CC(CC)CCCC)S8)S4)S1,50,25,2,1,1,CB,NA,100,,,,
1175,514,2019,5.68,5.32,11.5,0.46,0.89,IT-4F,5.66,4.21,1.45,CCCCCCC(C=C1)=CC=C1C2(C3=CC=C(CCCCCC)C=C3)C4=CC5=C(C(C6=C5SC7=C6SC(/C=C8C(C(C=C(F)C(F)=C9)=C9C\8=C(C#N)\C#N)=O)=C7)(C%10=CC=C(CCCCCC)C=C%10)C%11=CC=C(CCCCCC)C=C%11)C=C4C%12=C2C(SC(/C=C%13C(C(C=C(F)C(F)=C%14)=C%14C\%13=C(C#N)/C#N)=O)=C%15)=C%15S%12,1499.92,PDB-1,5.65,3.68,1.97,CC1=C(C(C2=C(CC(CC)CCCC)SC(CC(CC)CCCC)=C2C3=O)=O)C3=C(C4=CC5=C(C(C6=CC=C(CC(CC)CCCC)S6)=C7C=C(C)SC7=C5C8=CC=C(CC(CC)CCCC)S8)S4)S1,50,25,2,1,1,CB,DIO,100,,,,
1176,514,2019,2.12,2,7.41,0.2,0.9,IT-4F,5.66,4.21,1.45,CCCCCCC(C=C1)=CC=C1C2(C3=CC=C(CCCCCC)C=C3)C4=CC5=C(C(C6=C5SC7=C6SC(/C=C8C(C(C=C(F)C(F)=C9)=C9C\8=C(C#N)\C#N)=O)=C7)(C%10=CC=C(CCCCCC)C=C%10)C%11=CC=C(CCCCCC)C=C%11)C=C4C%12=C2C(SC(/C=C%13C(C(C=C(F)C(F)=C%14)=C%14C\%13=C(C#N)/C#N)=O)=C%15)=C%15S%12,1499.92,PDB-2,5.52,3.55,1.97,CC(SC1=C2C3=CC=C(CC(CC)CCCC)S3)=CC1=C(C4=CC=C(CC(CC)CCCC)S4)C5=C2C=C(C(SC6=C7C8=CC=C(CC(CC)CCCC)S8)=CC6=C(C9=CC=C(CC(CC)CCCC)S9)C%10=C7C=C(C%11=C%12C(C(C%13=C(CC(CC)CCCC)SC(CC(CC)CCCC)=C%13C%12=O)=O)=C(C)S%11)S%10)S5,50,25,2,1,1,CB,NA,100,,,,
1177,514,2019,11.82,11.53,18.51,0.63,0.89,IT-4F,5.66,4.21,1.45,CCCCCCC(C=C1)=CC=C1C2(C3=CC=C(CCCCCC)C=C3)C4=CC5=C(C(C6=C5SC7=C6SC(/C=C8C(C(C=C(F)C(F)=C9)=C9C\8=C(C#N)\C#N)=O)=C7)(C%10=CC=C(CCCCCC)C=C%10)C%11=CC=C(CCCCCC)C=C%11)C=C4C%12=C2C(SC(/C=C%13C(C(C=C(F)C(F)=C%14)=C%14C\%13=C(C#N)/C#N)=O)=C%15)=C%15S%12,1499.92,PDB-2,5.52,3.55,1.97,CC(SC1=C2C3=CC=C(CC(CC)CCCC)S3)=CC1=C(C4=CC=C(CC(CC)CCCC)S4)C5=C2C=C(C(SC6=C7C8=CC=C(CC(CC)CCCC)S8)=CC6=C(C9=CC=C(CC(CC)CCCC)S9)C%10=C7C=C(C%11=C%12C(C(C%13=C(CC(CC)CCCC)SC(CC(CC)CCCC)=C%13C%12=O)=O)=C(C)S%11)S%10)S5,50,25,2,1,1,CB,DIO,100,,,,
1178,514,2019,8.87,8.63,16.12,0.51,0.9,IT-4F,5.66,4.21,1.45,CCCCCCC(C=C1)=CC=C1C2(C3=CC=C(CCCCCC)C=C3)C4=CC5=C(C(C6=C5SC7=C6SC(/C=C8C(C(C=C(F)C(F)=C9)=C9C\8=C(C#N)\C#N)=O)=C7)(C%10=CC=C(CCCCCC)C=C%10)C%11=CC=C(CCCCCC)C=C%11)C=C4C%12=C2C(SC(/C=C%13C(C(C=C(F)C(F)=C%14)=C%14C\%13=C(C#N)/C#N)=O)=C%15)=C%15S%12,1499.92,PDB-3,5.41,3.45,1.96,CC(SC1=C2C3=CC=C(CC(CC)CCCC)S3)=CC1=C(C4=CC=C(CC(CC)CCCC)S4)C5=C2C=C(C(SC6=C7C8=CC=C(CC(CC)CCCC)S8)=CC6=C(C9=CC=C(CC(CC)CCCC)S9)C%10=C7C=C(C(SC%11=C%12C%13=CC=C(CC(CC)CCCC)S%13)=CC%11=C(C%14=CC=C(CC(CC)CCCC)S%14)C%15=C%12C=C(C%16=C%17C(C(C%18=C(CC(CC)CCCC)SC(CC(CC)CCCC)=C%18C%17=O)=O)=C(C)S%16)S%15)S%10)S5,50,25,2,1,1,CB,NA,100,,,,
1179,514,2019,11.19,10.9,17.71,0.7,0.85,IT-4F,5.66,4.21,1.45,CCCCCCC(C=C1)=CC=C1C2(C3=CC=C(CCCCCC)C=C3)C4=CC5=C(C(C6=C5SC7=C6SC(/C=C8C(C(C=C(F)C(F)=C9)=C9C\8=C(C#N)\C#N)=O)=C7)(C%10=CC=C(CCCCCC)C=C%10)C%11=CC=C(CCCCCC)C=C%11)C=C4C%12=C2C(SC(/C=C%13C(C(C=C(F)C(F)=C%14)=C%14C\%13=C(C#N)/C#N)=O)=C%15)=C%15S%12,1499.92,PDB-3,5.41,3.45,1.96,CC(SC1=C2C3=CC=C(CC(CC)CCCC)S3)=CC1=C(C4=CC=C(CC(CC)CCCC)S4)C5=C2C=C(C(SC6=C7C8=CC=C(CC(CC)CCCC)S8)=CC6=C(C9=CC=C(CC(CC)CCCC)S9)C%10=C7C=C(C(SC%11=C%12C%13=CC=C(CC(CC)CCCC)S%13)=CC%11=C(C%14=CC=C(CC(CC)CCCC)S%14)C%15=C%12C=C(C%16=C%17C(C(C%18=C(CC(CC)CCCC)SC(CC(CC)CCCC)=C%18C%17=O)=O)=C(C)S%16)S%15)S%10)S5,50,25,2,1,1,CB,DIO,100,,,,
1180,515,2019,8.41,8.21,20.29,0.5994,0.67,Coi6-2Cl-δ,5.46,4.02,1.44,CCCCCCC1=CC=C(C(C2=CC=C(CCCCCC)C=C2)(O3)C4=C(SC(/C=C5C(C(C=CC(Cl)=C6)=C6C\5=C(C#N)\C#N)=O)=C4)C7=C3C8=C(S7)C9=C(C(SC(/C=C%10C(C(C=CC(Cl)=C%11)=C%11C\%10=C(C#N)/C#N)=O)=C%12)=C%12C(C%13=CC=C(CCCCCC)C=C%13)(C%14=CC=C(CCCCCC)C=C%14)O9)S8)C=C1,1478.78,PTB7-Th,5.27,3.48,1.79,O=C(OCC(CC)CCCC)C1=C(F)C2=C(C)SC(C3=CC4=C(C(C5=CC=C(CC(CC)CCCC)S5)=C(C=C(C)S6)C6=C4C7=CC=C(CC(CC)CCCC)S7)S3)=C2S1,105.7,43,2.458139535,1,1,CB,DIO,NA,100,,,
1181,515,2019,9.22,8.92,20.44,0.6312,0.69,Coi6-2Cl-m,5.47,4.02,1.45,CCCCCCC1=CC=C(C(C2=CC=C(CCCCCC)C=C2)(O3)C4=C(SC(/C=C5C(C(C=CC(Cl)=C6)=C6C\5=C(C#N)\C#N)=O)=C4)C7=C3C8=C(S7)C9=C(C(SC(/C=C%10C(C(C=C(Cl)C=C%11)=C%11C\%10=C(C#N)/C#N)=O)=C%12)=C%12C(C%13=CC=C(CCCCCC)C=C%13)(C%14=CC=C(CCCCCC)C=C%14)O9)S8)C=C1,1478.78,PTB7-Th,5.27,3.48,1.79,O=C(OCC(CC)CCCC)C1=C(F)C2=C(C)SC(C3=CC4=C(C(C5=CC=C(CC(CC)CCCC)S5)=C(C=C(C)S6)C6=C4C7=CC=C(CC(CC)CCCC)S7)S3)=C2S1,105.7,43,2.458139535,1,1,CB,DIO,NA,100,,,
1182,515,2019,8.82,8.64,20.03,0.6132,0.69,Coi6-2Cl-γ,5.46,4.05,1.41,CCCCCCC1=CC=C(C(C2=CC=C(CCCCCC)C=C2)(O3)C4=C(SC(/C=C5C(C(C=C(Cl)C=C6)=C6C\5=C(C#N)\C#N)=O)=C4)C7=C3C8=C(S7)C9=C(C(SC(/C=C%10C(C(C=C(Cl)C=C%11)=C%11C\%10=C(C#N)/C#N)=O)=C%12)=C%12C(C%13=CC=C(CCCCCC)C=C%13)(C%14=CC=C(CCCCCC)C=C%14)O9)S8)C=C1,1478.78,PTB7-Th,5.27,3.48,1.79,O=C(OCC(CC)CCCC)C1=C(F)C2=C(C)SC(C3=CC4=C(C(C5=CC=C(CC(CC)CCCC)S5)=C(C=C(C)S6)C6=C4C7=CC=C(CC(CC)CCCC)S7)S3)=C2S1,105.7,43,2.458139535,1,1,CB,DIO,NA,100,,,