ID,Ref,year,PCE_max(%),PCE_ave(%),Jsc(mA/cm2),FF,Voc(V),Nickname(n),-HOMO_n(eV),-LUMO_n(eV),Eg_n(eV),n(SMILES),M (g/mol),Nickname(p),-HOMO_p(eV),-LUMO_p(eV),Eg_p(eV),p(SMILES),Mw (kg/mol),Mn(kg/mol),PDI,p/n ratio (p),p/n ratio (n),Solvent,Additive,TA (oC),thick (nm),,Journal,DOI
963,437,2019,7.93,7.69,16.4,0.619,0.759,FTPDI3,5.79,3.82,1.97,O=C(N(C(CCCCCC)CCCCCC)C1=O)C2=CC(C3=C4C5=C(C6=C7C8=CC9=C6C(C(N(C(CCCCCC)CCCCCC)C9=O)=O)=C5)C%10=C(C7=C(C%11=C8C%12=C(C%13=C%14C=CC%15=C%13C(C(N(C(CCCCCC)CCCCCC)C%15=O)=O)=C%12)C%16=C(C%14=CC=C%17C(N(C(CCCCCC)CCCCCC)C%18=O)=O)C%17=C%18C=C%16%11)C=C%19C(N(C(CCCCCC)CCCCCC)C%20=O)=O)C%19=C%20C=C%103)=C%21C%22=C(C%23=C%24C=C(C(N(C(CCCCCC)CCCCCC)C%25=O)=O)C%26=C%25C=C4C%21=C%23%26)C(C%27=C%24C(C%28=CC%29=C%30C(C%31=C%32C=C%30C(N(C(CCCCCC)CCCCCC)C%29=O)=O)=C%28C%33=C%34C=C(C(N(C(CCCCCC)CCCCCC)C%35=O)=O)C%36=C%35C=C(C%37=C%32C%38=CC%39=C%40C(C%41=C%42C=C%40C(N(C(CCCCCC)CCCCCC)C%39=O)=O)=C%38C%43=C%37C=C(C(N(C(CCCCCC)CCCCCC)C%44=O)=O)C%45=C%44C=C(C%46=C%42C%47=CC%48=C%49C(C%50=CC=C%49C(N(C(CCCCCC)CCCCCC)C%48=O)=O)=C%47C%51=C%46C=C(C(N(C(CCCCCC)CCCCCC)C%52=O)=O)C%53=C%52C=CC%50=C%51%53)C%41=C%43%45)C%31=C%33%36)=C%34C%54=C%27C%55=C(C%56=C%57C(C%58=C%59C%60=CC%61=C%62C(C%63=C%64C=C%62C(N(C(CCCCCC)CCCCCC)C%61=O)=O)=C%60C%65=C%58C=C(C(N(C(CCCCCC)CCCCCC)C%66=O)=O)C%67=C%66C=C(C%68=C%64C%69=CC%70=C%71C(C%72=CC=C%71C(N(C(CCCCCC)CCCCCC)C%70=O)=O)=C%69C%73=C%68C=C(C(N(C(CCCCCC)CCCCCC)C%74=O)=O)C%75=C%74C=CC%72=C%73%75)C%63=C%65%67)=CC%76=C%56C(C(N(C(CCCCCC)CCCCCC)C%76=O)=O)=C%55)C%77=C(C%57=C%59C=C%78C(N(C(CCCCCC)CCCCCC)C%79=O)=O)C%78=C%79C=C%77%54)=CC1=C%222,6981.46,PTB7-Th,5.12,3.6,1.52,O=C(OCC(CC)CCCC)C1=C(F)C2=C(C)SC(C3=CC4=C(C(C5=CC=C(CC(CC)CCCC)S5)=C(C=C(C)S6)C6=C4C7=CC=C(CC(CC)CCCC)S7)S3)=C2S1,124,72.9,1.700960219,1,1,DCB,DIO,80,,,,
964,438,2019,5.11,4.94,9.99,0.5466,0.93,IDT-PhIC,5.67,3.89,1.78,O=C(C(C=CC=C1)=C1C/2=C(C#N)/C#N)C2=C/C(S3)=CC4=C3C5=C(C(C6=CC=C(OCCCCCC)C=C6)4C7=CC=C(OCCCCCC)C=C7)C=C8C(C(C9=C8SC(/C=C%10/C(C%11=C(C%10=O)C=CC=C%11)=C(C#N)/C#N)=C9)(C%12=CC=C(OCCCCCC)C=C%12)C%13=CC=C(OCCCCCC)C=C%13)=C5,1379.79,PBDB-T,5.54,3.65,1.89,CC(SC1=C2C3=CC=C(CC(CC)CCCC)S3)=CC1=C(C4=CC=C(CC(CC)CCCC)S4)C5=C2C=C(S5)C6=CC=C(C7=C8C(C(C9=C(CC(CC)CCCC)SC(CC(CC)CCCC)=C9C8=O)=O)=C(C%10=CC=C(C)S%10)S7)S6,117,58.5,2,1,1,CB,NA,NA,,,,
965,438,2019,1.77,1.63,4.93,0.3664,0.98,IDTV-PhIC,5.52,3.84,1.68,O=C(C(C=CC=C1)=C1C/2=C(C#N)/C#N)C2=C/C(S3)=CC4=C3C5=C(/C4=C(C6=CC=C(OCC(CC)CCCC)C=C6)/C7=CC=C(OCC(CC)CCCC)C=C7)C=C8C(/C(C9=C8SC(/C=C%10/C(C%11=C(C%10=O)C=CC=C%11)=C(C#N)/C#N)=C9)=C(C%12=CC=C(OCC(CC)CCCC)C=C%12)\C%13=CC=C(OCC(CC)CCCC)C=C%13)=C5,1516.03,PBDB-T,5.54,3.65,1.89,CC(SC1=C2C3=CC=C(CC(CC)CCCC)S3)=CC1=C(C4=CC=C(CC(CC)CCCC)S4)C5=C2C=C(S5)C6=CC=C(C7=C8C(C(C9=C(CC(CC)CCCC)SC(CC(CC)CCCC)=C9C8=O)=O)=C(C%10=CC=C(C)S%10)S7)S6,117,58.5,2,1,1,CB,NA,NA,,,,
966,438,2019,5.85,5.61,11.58,0.5091,0.99,m-IDT-PhIC,5.63,3.78,1.85,O=C(C(C=CC=C1)=C1C/2=C(C#N)/C#N)C2=C/C(S3)=CC4=C3C5=C(/C4=C(C6=CC(OCC(CC)CCCC)=CC=C6)/C7=CC=CC(OCC(CC)CCCC)=C7)C=C8C(/C(C9=C8SC(/C=C%10/C(C%11=C(C%10=O)C=CC=C%11)=C(C#N)/C#N)=C9)=C(C%12=CC=CC(OCC(CC)CCCC)=C%12)\C%13=CC(OCC(CC)CCCC)=CC=C%13)=C5,1516.03,PBDB-T,5.54,3.65,1.89,CC(SC1=C2C3=CC=C(CC(CC)CCCC)S3)=CC1=C(C4=CC=C(CC(CC)CCCC)S4)C5=C2C=C(S5)C6=CC=C(C7=C8C(C(C9=C(CC(CC)CCCC)SC(CC(CC)CCCC)=C9C8=O)=O)=C(C%10=CC=C(C)S%10)S7)S6,117,58.5,2,1,1,CB,CN,130,,,,
967,438,2019,0.62,0.6,2.06,0.3326,0.91,IDTV-ThIC,5.43,3.72,1.71,O=C(C(C=CC=C1)=C1C/2=C(C#N)/C#N)C2=C/C(S3)=CC4=C3C5=C(/C4=C(C6=CC=C(CC(CC)CCCC)S6)/C7=CC=C(CC(CC)CCCC)S7)C=C8C(/C(C9=C8SC(/C=C%10/C(C%11=C(C%10=O)C=CC=C%11)=C(C#N)/C#N)=C9)=C(C%12=CC=C(CC(CC)CCCC)S%12)\C%13=CC=C(CC(CC)CCCC)S%13)=C5,1476.12,PBDB-T,5.54,3.65,1.89,CC(SC1=C2C3=CC=C(CC(CC)CCCC)S3)=CC1=C(C4=CC=C(CC(CC)CCCC)S4)C5=C2C=C(S5)C6=CC=C(C7=C8C(C(C9=C(CC(CC)CCCC)SC(CC(CC)CCCC)=C9C8=O)=O)=C(C%10=CC=C(C)S%10)S7)S6,117,58.5,2,1,1,CB,NA,130,,,,
968,439,2019,12.29,11.91,19.55,0.748,0.84,IT-4F,5.57,3.99,1.58,CCCCCCC(C=C1)=CC=C1C2(C3=CC=C(CCCCCC)C=C3)C4=CC5=C(C(C6=C5SC7=C6SC(/C=C8C(C(C=C(F)C(F)=C9)=C9C\8=C(C#N)\C#N)=O)=C7)(C%10=CC=C(CCCCCC)C=C%10)C%11=CC=C(CCCCCC)C=C%11)C=C4C%12=C2C(SC(/C=C%13C(C(C=C(F)C(F)=C%14)=C%14C\%13=C(C#N)/C#N)=O)=C%15)=C%15S%12,1499.92,PBDB-TF,5.54,3.51,2.03,CC(SC1=C2C3=CC(F)=C(CC(CC)CCCC)S3)=CC1=C(C4=CC(F)=C(CC(CC)CCCC)S4)C5=C2C=C(S5)C6=CC=C(C7=C8C(C(C9=C(CC(CC)CCCC)SC(CC(CC)CCCC)=C9C8=O)=O)=C(C%10=CC=C(C)S%10)S7)S6,38.6,19.3,2,1,1,CB,DIO,120,,,,
969,439,2019,7.22,7.03,16.37,0.558,0.79,O6T-4F,5.32,4,1.32,CCCCCCC(C=C1)=CC=C1C2(C3=CC=C(CCCCCC)C=C3)OC4=C(SC5=C4SC6=C5OC(C7=C6SC8=C7SC(/C=C9C(C(C=C(F)C(F)=C%10)=C%10C\9=C(C#N)\C#N)=O)=C8)(C%11=CC=C(CCCCCC)C=C%11)C%12=CC=C(CCCCCC)C=C%12)C%13=C2C(SC(/C=C%14C(C(C=C(F)C(F)=C%15)=C%15C\%14=C(C#N)/C#N)=O)=C%16)=C%16S%13,1594.02,PBDB-TF,5.54,3.51,2.03,CC(SC1=C2C3=CC(F)=C(CC(CC)CCCC)S3)=CC1=C(C4=CC(F)=C(CC(CC)CCCC)S4)C5=C2C=C(S5)C6=CC=C(C7=C8C(C(C9=C(CC(CC)CCCC)SC(CC(CC)CCCC)=C9C8=O)=O)=C(C%10=CC=C(C)S%10)S7)S6,38.6,19.3,2,1,1,CB,DIO,120,,,,
970,440,2019,8.5,8.3,15.3,0.588,0.95,IDIC,5.69,3.91,1.78,O=C(C(C=CC=C1)=C1C/2=C(C#N)\C#N)C2=C/C(S3)=CC4=C3C5=C(C4(CCCCCC)CCCCCC)C=C6C(C(CCCCCC)(CCCCCC)C7=C6SC(/C=C8C(C(C=CC=C9)=C9C\8=C(C#N)/C#N)=O)=C7)=C5,1011.4,PBBF,5.52,3.47,2.05,CC(SC1=C2C3=CC=C(CC(CC)CCCC)S3)=CC1=C(C4=CC=C(CC(CC)CCCC)S4)C5=C2C=C(C(SC6=C7C8=CC(F)=C(CC(CC)CCCC)S8)=CC6=C(C9=CC(F)=C(CC(CC)CCCC)S9)C%10=C7C=C(C)S%10)S5,72.688,30.8,2.36,1,1,CF,NA,NA,,,,
971,440,2019,5.3,5.1,13.7,0.439,0.88,IDIC,5.69,3.91,1.78,O=C(C(C=CC=C1)=C1C/2=C(C#N)\C#N)C2=C/C(S3)=CC4=C3C5=C(C4(CCCCCC)CCCCCC)C=C6C(C(CCCCCC)(CCCCCC)C7=C6SC(/C=C8C(C(C=CC=C9)=C9C\8=C(C#N)/C#N)=O)=C7)=C5,1011.4,PBDTT,5.45,3.32,2.13,CC(SC1=C2C3=CC=C(CC(CC)CCCC)S3)=CC1=C(C4=CC=C(CC(CC)CCCC)S4)C5=C2C=C(C)S5,53.24,24.2,2.2,1,1,CF,NA,NA,,,,
972,441,2019,7.4,7.3,14.1,0.65,0.81,IT-M,5.58,3.98,1.6,CCCCCCC(C=C1)=CC=C1C2(C3=CC=C(CCCCCC)C=C3)C4=CC5=C(C(C6=C5SC7=C6SC(/C=C8C(C(C=CC(C)=C9)=C9C\8=C(C#N)\C#N)=O)=C7)(C%10=CC=C(CCCCCC)C=C%10)C%11=CC=C(CCCCCC)C=C%11)C=C4C%12=C2C(SC(/C=C%13C(C(C=CC(C)=C%14)=C%14C\%13=C(C#N)/C#N)=O)=C%15)=C%15S%12,1456.01,PNQx-2F2THW,5.3,3.37,1.93,CC(S1)=CC(F)=C1C(S2)=C(F)C=C2C(S3)=CC=C3C(C4=C5N=C(C6=CC=CC(OCC(CC)CCCC)=C6)C(C7=CC(OCC(CC)CCCC)=CC=C7)=N4)=CC8=C5C=C(C9=CC=C(C)S9)C%10=C8N=C(C%11=CC=CC(OCC(CC)CCCC)=C%11)C(C%12=CC(OCC(CC)CCCC)=CC=C%12)=N%10,96,38.4,2.5,1,1,CB,DIO,120,100,,,
973,441,2019,7.5,7.4,14.3,0.66,0.8,IT-M,5.58,3.98,1.6,CCCCCCC(C=C1)=CC=C1C2(C3=CC=C(CCCCCC)C=C3)C4=CC5=C(C(C6=C5SC7=C6SC(/C=C8C(C(C=CC(C)=C9)=C9C\8=C(C#N)\C#N)=O)=C7)(C%10=CC=C(CCCCCC)C=C%10)C%11=CC=C(CCCCCC)C=C%11)C=C4C%12=C2C(SC(/C=C%13C(C(C=CC(C)=C%14)=C%14C\%13=C(C#N)/C#N)=O)=C%15)=C%15S%12,1456.01,PNQx-2F2TLW,5.28,3.38,1.9,CC(S1)=CC(F)=C1C(S2)=C(F)C=C2C(S3)=CC=C3C(C4=C5N=C(C6=CC=CC(OCC(CC)CCCC)=C6)C(C7=CC(OCC(CC)CCCC)=CC=C7)=N4)=CC8=C5C=C(C9=CC=C(C)S9)C%10=C8N=C(C%11=CC=CC(OCC(CC)CCCC)=C%11)C(C%12=CC(OCC(CC)CCCC)=CC=C%12)=N%10,33.06,17.4,1.9,1,1,CB,DIO,120,100,,,
974,442,2019,7.62,7.47,20.45,0.4686,0.8,Y6,5.6,4.1,1.5,O=C(C(C=C(F)C(F)=C1)=C1C/2=C(C#N)/C#N)C2=C/C3=C(CCCCCCCCCCC)C(SC4=C5N(CC(CC)CCCC)C6=C4C7=NSN=C7C8=C6N(CC(CC)CCCC)C9=C8SC%10=C9SC(/C=C%11/C(C%12=C(C%11=O)C=C(F)C(F)=C%12)=C(C#N)\C#N)=C%10CCCCCCCCCCC)=C5S3,1451.94,PE31,5.24,3.35,1.89,CC1=CC(C(S1)=C2C3=CC(Cl)=C(CC(CC)CCCC)S3)=C(C4=C2C=C(C5=CC=C(C6=CC=C(C7=CC=C(C)S7)C8=NN(CC(CCCCCC)CCCCCCCC)N=C68)S5)S4)C9=CC(Cl)=C(CC(CC)CCCC)S9,66.56,25.6,2.6,1,1.5,CF,CN,110,95,,,
975,442,2019,7.31,7.26,18.44,0.5303,0.75,Y6,5.6,4.1,1.5,O=C(C(C=C(F)C(F)=C1)=C1C/2=C(C#N)/C#N)C2=C/C3=C(CCCCCCCCCCC)C(SC4=C5N(CC(CC)CCCC)C6=C4C7=NSN=C7C8=C6N(CC(CC)CCCC)C9=C8SC%10=C9SC(/C=C%11/C(C%12=C(C%11=O)C=C(F)C(F)=C%12)=C(C#N)\C#N)=C%10CCCCCCCCCCC)=C5S3,1451.94,PE32,5.2,3.28,1.92,CC1=CC(C(S1)=C2C3=CC(Cl)=C(CC(CC)CCCC)S3)=C(C4=C2C=C(C5=CC=C(C6=C(OC)C(OC)=C(C7=CC=C(C)S7)C8=NN(CC(CCCCCC)CCCCCCCC)N=C68)S5)S4)C9=CC(Cl)=C(CC(CC)CCCC)S9,58.25,23.3,2.5,1,1.5,CF,CN,110,95,,,
976,442,2019,12.31,12.31,23.77,0.6144,0.84,Y6,5.6,4.1,1.5,O=C(C(C=C(F)C(F)=C1)=C1C/2=C(C#N)/C#N)C2=C/C3=C(CCCCCCCCCCC)C(SC4=C5N(CC(CC)CCCC)C6=C4C7=NSN=C7C8=C6N(CC(CC)CCCC)C9=C8SC%10=C9SC(/C=C%11/C(C%12=C(C%11=O)C=C(F)C(F)=C%12)=C(C#N)\C#N)=C%10CCCCCCCCCCC)=C5S3,1451.94,J52-Cl,5.39,3.45,1.94,CC1=CC(C(S1)=C2C3=CC(Cl)=C(CC(CC)CCCC)S3)=C(C4=C2C=C(C5=CC=C(C6=C(F)C(F)=C(C7=CC=C(C)S7)C8=NN(CC(CCCCCC)CCCCCCCC)N=C68)S5)S4)C9=CC(Cl)=C(CC(CC)CCCC)S9,56.11,18.1,3.1,1,1,CF,CN,110,95,,,
977,442,2019,14.02,13.9,22.21,0.7543,0.84,Y6,5.6,4.1,1.5,O=C(C(C=C(F)C(F)=C1)=C1C/2=C(C#N)/C#N)C2=C/C3=C(CCCCCCCCCCC)C(SC4=C5N(CC(CC)CCCC)C6=C4C7=NSN=C7C8=C6N(CC(CC)CCCC)C9=C8SC%10=C9SC(/C=C%11/C(C%12=C(C%11=O)C=C(F)C(F)=C%12)=C(C#N)\C#N)=C%10CCCCCCCCCCC)=C5S3,1451.94,PE4,5.42,3.49,1.93,CC1=CC(C(S1)=C2C3=CC(Cl)=C(CC(CC)CCCC)S3)=C(C4=C2C=C(C(S5)=C(CCCCCC)C6=C5C=C(C7=C(F)C(F)=C(C8=CC(SC(C)=C9CCCCCC)=C9S8)C%10=NN(CC(CCCCCC)CCCCCCCC)N=C7%10)S6)S4)C%11=CC(Cl)=C(CC(CC)CCCC)S%11,57.6,19.2,3,1,1.2,CF,CN,110,95,,,
978,443,2019,15.18,14.96,24.68,0.7119,0.864,Y6,5.62,4.11,1.51,O=C(C(C=C(F)C(F)=C1)=C1C/2=C(C#N)/C#N)C2=C/C3=C(CCCCCCCCCCC)C(SC4=C5N(CC(CC)CCCC)C6=C4C7=NSN=C7C8=C6N(CC(CC)CCCC)C9=C8SC%10=C9SC(/C=C%11/C(C%12=C(C%11=O)C=C(F)C(F)=C%12)=C(C#N)\C#N)=C%10CCCCCCCCCCC)=C5S3,1451.94,PBDB-T-SF,5.57,3.67,1.9,CC(SC1=C2C3=CC(F)=C(SCC(CC)CCCC)S3)=CC1=C(C4=CC(F)=C(SCC(CC)CCCC)S4)C5=C2C=C(C6=CC=C(C7=C8C(C(C9=C(CC(CC)CCCC)SC(CC(CC)CCCC)=C9C8=O)=O)=C(C%10=CC=C(C)S%10)S7)S6)S5,58.194,18.348,3.171680837,1,1.2,CF,CN,80,,,,
979,443,2019,10.92,10.53,18.11,0.6145,0.981,ITCT,5.6,3.92,1.68,CCCCCCC(C=C1)=CC=C1C2(C3=CC=C(CCCCCC)C=C3)C4=CC5=C(C(C6=C5SC7=C6SC(/C=C8C(C(SC=C9)=C9C\8=C(C#N)\C#N)=O)=C7)(C%10=CC=C(CCCCCC)C=C%10)C%11=CC=C(CCCCCC)C=C%11)C=C4C%12=C2C(SC(/C=C%13C(C(SC=C%14)=C%14C\%13=C(C#N)/C#N)=O)=C%15)=C%15S%12,1440,PBDB-T-SF,5.57,3.67,1.9,CC(SC1=C2C3=CC(F)=C(SCC(CC)CCCC)S3)=CC1=C(C4=CC(F)=C(SCC(CC)CCCC)S4)C5=C2C=C(C6=CC=C(C7=C8C(C(C9=C(CC(CC)CCCC)SC(CC(CC)CCCC)=C9C8=O)=O)=C(C%10=CC=C(C)S%10)S7)S6)S5,58.194,18.348,3.171680837,1,1,CF,CN,80,,,,
980,443,2019,12.77,12.31,20.1,0.7351,0.864,IT-4F,5.71,4.15,1.56,CCCCCCC(C=C1)=CC=C1C2(C3=CC=C(CCCCCC)C=C3)C4=CC5=C(C(C6=C5SC7=C6SC(/C=C8C(C(C=C(F)C(F)=C9)=C9C\8=C(C#N)\C#N)=O)=C7)(C%10=CC=C(CCCCCC)C=C%10)C%11=CC=C(CCCCCC)C=C%11)C=C4C%12=C2C(SC(/C=C%13C(C(C=C(F)C(F)=C%14)=C%14C\%13=C(C#N)/C#N)=O)=C%15)=C%15S%12,1499.92,PBDB-T-SF,5.57,3.67,1.9,CC(SC1=C2C3=CC(F)=C(SCC(CC)CCCC)S3)=CC1=C(C4=CC(F)=C(SCC(CC)CCCC)S4)C5=C2C=C(C6=CC=C(C7=C8C(C(C9=C(CC(CC)CCCC)SC(CC(CC)CCCC)=C9C8=O)=O)=C(C%10=CC=C(C)S%10)S7)S6)S5,58.194,18.348,3.171680837,1,1,CB,DIO,80,,,,
981,444,2019,10.1,9.8,20.7,0.682,0.71,IEICO-4F,5.39,4.14,1.25,CCCCCCC(C=C1)=CC=C1C(C2=C3SC(C4=C(OCC(CC)CCCC)C=C(/C=C5C(C(C=C(F)C(F)=C6)=C6C\5=C(C#N)\C#N)=O)S4)=C2)(C7=CC=C(CCCCCC)C=C7)C8=C3C=C(C(C9=C%10SC(C(S%11)=C(C=C%11/C=C%12/C(C(C=C%13F)=C(C%12=O)C=C%13F)=C(C#N)/C#N)OCC(CCCC)CC)=C9)(C%14=CC=C(CCCCCC)C=C%14)C%15=CC=C(CCCCCC)C=C%15)C%10=C8,1808.42,PTB7-Th,5.37,3.65,1.72,O=C(OCC(CC)CCCC)C1=C(F)C2=C(C)SC(C3=CC4=C(C(C5=CC=C(CC(CC)CCCC)S5)=C(C=C(C)S6)C6=C4C7=CC=C(CC(CC)CCCC)S7)S3)=C2S1,124,72.9,1.700960219,1,1.4,CB,CN,NA,110,,,
982,444,2019,12.6,12.5,20.4,0.696,0.88,Y1,5.47,3.95,1.52,CCCCC(CN1C2=C(C3=C1C(SC(/C=C4/C(C5=C(C4=O)C=CC=C5)=C(C#N)/C#N)=C6)=C6S3)C7=NN(N=C7C8=C2N(C9=C8SC%10=C9SC(/C=C%11C(C(C=CC=C%12)=C%12C\%11=C(C#N)\C#N)=O)=C%10)CC(CCCC)CC)CC(CCCC)CC)CC,1166.55,PBDB-T,5.4,3.49,1.91,CC(SC1=C2C3=CC=C(CC(CC)CCCC)S3)=CC1=C(C4=CC=C(CC(CC)CCCC)S4)C5=C2C=C(S5)C6=CC=C(C7=C8C(C(C9=C(CC(CC)CCCC)SC(CC(CC)CCCC)=C9C8=O)=O)=C(C%10=CC=C(C)S%10)S7)S6,117,58.5,2,1,1,CB,CN,NA,110,,,
983,445,2019,7.6,7.4,16.3,0.581,0.8,ITIC,5.58,3.91,1.67,CCCCCCC(C=C1)=CC=C1C2(C3=CC=C(CCCCCC)C=C3)C4=CC5=C(C(C6=C5SC7=C6SC(/C=C8C(C(C=CC=C9)=C9C\8=C(C#N)\C#N)=O)=C7)(C%10=CC=C(CCCCCC)C=C%10)C%11=CC=C(CCCCCC)C=C%11)C=C4C%12=C2C(SC(/C=C%13C(C(C=CC=C%14)=C%14C\%13=C(C#N)/C#N)=O)=C%15)=C%15S%12,1427.96,BDT-PYC10,5.41,3.43,1.98,CC(SC1=C2C3=CC=C(CC(CC)CCCC)S3)=CC1=C(C4=CC=C(CC(CC)CCCC)S4)C5=C2C=C(C6=C(CCCCCCCCCC)C=C(C7=NC=C(C8=CC(CCCCCCCCCC)=C(C)S8)N=C7)S6)S5,110.75,44.3,2.5,1,1.2,CB,DIO,130,,,,
984,445,2019,8.1,7.95,14.6,0.617,0.9,ITIC,5.58,3.91,1.67,CCCCCCC(C=C1)=CC=C1C2(C3=CC=C(CCCCCC)C=C3)C4=CC5=C(C(C6=C5SC7=C6SC(/C=C8C(C(C=CC=C9)=C9C\8=C(C#N)\C#N)=O)=C7)(C%10=CC=C(CCCCCC)C=C%10)C%11=CC=C(CCCCCC)C=C%11)C=C4C%12=C2C(SC(/C=C%13C(C(C=CC=C%14)=C%14C\%13=C(C#N)/C#N)=O)=C%15)=C%15S%12,1427.96,BDT-PYEH,5.5,3.48,2.02,CC(SC1=C2C3=CC=C(CC(CC)CCCC)S3)=CC1=C(C4=CC=C(CC(CC)CCCC)S4)C5=C2C=C(C6=C(CC(CC)CCCC)C=C(C7=NC=C(C8=CC(CC(CC)CCCC)=C(C)S8)N=C7)S6)S5,84.16,52.6,1.6,1,1.2,CB,DIO,130,,,,
985,446,2019,5.44,5.39,11.49,0.4606,1.02,ITIC,5.6,3.99,1.61,CCCCCCC(C=C1)=CC=C1C2(C3=CC=C(CCCCCC)C=C3)C4=CC5=C(C(C6=C5SC7=C6SC(/C=C8C(C(C=CC=C9)=C9C\8=C(C#N)\C#N)=O)=C7)(C%10=CC=C(CCCCCC)C=C%10)C%11=CC=C(CCCCCC)C=C%11)C=C4C%12=C2C(SC(/C=C%13C(C(C=CC=C%14)=C%14C\%13=C(C#N)/C#N)=O)=C%15)=C%15S%12,1427.96,PT-68,5.48,3.76,1.72,CC1=CC=C(C2=C(F)C(F)=C(C3=CC=C(C4=CC=C(/C(C#N)=C/C5=C(OCC(CCCCCC)CCCCCCCC)C=C(/C=C(C#N)/C6=CC=C(C)S6)C(OCC(CCCCCCCC)CCCCCC)=C5)S4)S3)C7=NN(CC(CCCCCCCCCC)CCCCCCCCCCCC)N=C72)S1,74.025,42.3,1.75,2,1,CF,NA,100,103,,,
986,446,2019,7.03,6.91,12.43,0.5308,1.04,ITIC,5.6,3.99,1.61,CCCCCCC(C=C1)=CC=C1C2(C3=CC=C(CCCCCC)C=C3)C4=CC5=C(C(C6=C5SC7=C6SC(/C=C8C(C(C=CC=C9)=C9C\8=C(C#N)\C#N)=O)=C7)(C%10=CC=C(CCCCCC)C=C%10)C%11=CC=C(CCCCCC)C=C%11)C=C4C%12=C2C(SC(/C=C%13C(C(C=CC=C%14)=C%14C\%13=C(C#N)/C#N)=O)=C%15)=C%15S%12,1427.96,PT-810-H,5.51,3.78,1.73,CC1=CC=C(C2=C(F)C(F)=C(C3=CC=C(C4=CC=C(/C(C#N)=C/C5=C(OCC(CCCCCCCC)CCCCCCCCCC)C=C(/C=C(C#N)/C6=CC=C(C)S6)C(OCC(CCCCCCCCCC)CCCCCCCC)=C5)S4)S3)C7=NN(CC(CCCCCCCCCC)CCCCCCCCCCCC)N=C72)S1,125.44,64,1.96,2,1,CF,NA,100,103,,,
987,446,2019,6.03,5.99,10.3,0.559,1.04,ITIC,5.6,3.99,1.61,CCCCCCC(C=C1)=CC=C1C2(C3=CC=C(CCCCCC)C=C3)C4=CC5=C(C(C6=C5SC7=C6SC(/C=C8C(C(C=CC=C9)=C9C\8=C(C#N)\C#N)=O)=C7)(C%10=CC=C(CCCCCC)C=C%10)C%11=CC=C(CCCCCC)C=C%11)C=C4C%12=C2C(SC(/C=C%13C(C(C=CC=C%14)=C%14C\%13=C(C#N)/C#N)=O)=C%15)=C%15S%12,1427.96,PT-810-L,5.51,3.78,1.73,CC1=CC=C(C2=C(F)C(F)=C(C3=CC=C(C4=CC=C(/C(C#N)=C/C5=C(OCC(CCCCCCCC)CCCCCCCCCC)C=C(/C=C(C#N)/C6=CC=C(C)S6)C(OCC(CCCCCCCCCC)CCCCCCCC)=C5)S4)S3)C7=NN(CC(CCCCCCCCCC)CCCCCCCCCCCC)N=C72)S1,63.03,33,1.91,2,1,CF,NA,100,103,,,
988,447,2019,4.01,3.82,8.23,0.49,1,SF-HR,5.53,3.35,2.18,S=C(N(C/1=O)CCCCCC)SC1=C/C(S2)=CC=C2C(C=C3)=CC4=C3C5=CC=C(C6=CC=C(/C=C(S7)/C(N(CCCCCC)C7=S)=O)S6)C=C5C48C9=CC(C%10=CC=C(/C=C(S%11)/C(N(CCCCCC)C%11=S)=O)S%10)=CC=C9C%12=CC=C(C%13=CC=C(/C=C%14SC(N(C\%14=O)CCCCCC)=S)S%13)C=C%128,1554.24,P3HT,5.14,3.14,2,CC1=CC(CCCCCC)=C(C)S1,21.1,11.6,1.818965517,1,1,CF,NA,120,100,,,
989,447,2019,0.13,0.07,0.36,0.31,1.15,SF-HR,5.53,3.35,2.18,S=C(N(C/1=O)CCCCCC)SC1=C/C(S2)=CC=C2C(C=C3)=CC4=C3C5=CC=C(C6=CC=C(/C=C(S7)/C(N(CCCCCC)C7=S)=O)S6)C=C5C48C9=CC(C%10=CC=C(/C=C(S%11)/C(N(CCCCCC)C%11=S)=O)S%10)=CC=C9C%12=CC=C(C%13=CC=C(/C=C%14SC(N(C\%14=O)CCCCCC)=S)S%13)C=C%128,1554.24,PTB7-Th,5.23,3.63,1.6,O=C(OCC(CC)CCCC)C1=C(F)C2=C(C)SC(C3=CC4=C(C(C5=CC=C(CC(CC)CCCC)S5)=C(C=C(C)S6)C6=C4C7=CC=C(CC(CC)CCCC)S7)S3)=C2S1,124,72.9,1.700960219,1,1,CF,NA,120,100,,,
990,448,2019,11.8,11.5,20.3,0.66,0.879,IT-4F,5.71,4.15,1.56,CCCCCCC(C=C1)=CC=C1C2(C3=CC=C(CCCCCC)C=C3)C4=CC5=C(C(C6=C5SC7=C6SC(/C=C8C(C(C=C(F)C(F)=C9)=C9C\8=C(C#N)\C#N)=O)=C7)(C%10=CC=C(CCCCCC)C=C%10)C%11=CC=C(CCCCCC)C=C%11)C=C4C%12=C2C(SC(/C=C%13C(C(C=C(F)C(F)=C%14)=C%14C\%13=C(C#N)/C#N)=O)=C%15)=C%15S%12,1499.92,P(F-Cl),5.64,3.66,1.98,CC(SC1=C2C3=CC(F)=C(CC(CC)CCCC)S3)=CC1=C(C4=CC(F)=C(CC(CC)CCCC)S4)C5=C2C=C(C6=C(Cl)C(C)=C(C)S6)S5,38.8,25.1,1.545816733,1,1,CB,DIO,150,,,,
991,448,2019,10.2,10,20.3,0.561,0.899,IT-4F,5.71,4.15,1.56,CCCCCCC(C=C1)=CC=C1C2(C3=CC=C(CCCCCC)C=C3)C4=CC5=C(C(C6=C5SC7=C6SC(/C=C8C(C(C=C(F)C(F)=C9)=C9C\8=C(C#N)\C#N)=O)=C7)(C%10=CC=C(CCCCCC)C=C%10)C%11=CC=C(CCCCCC)C=C%11)C=C4C%12=C2C(SC(/C=C%13C(C(C=C(F)C(F)=C%14)=C%14C\%13=C(C#N)/C#N)=O)=C%15)=C%15S%12,1499.92,P(Cl-Cl),5.7,3.68,2.02,CC(SC1=C2C3=CC(Cl)=C(CC(CC)CCCC)S3)=CC1=C(C4=CC(Cl)=C(CC(CC)CCCC)S4)C5=C2C=C(C6=C(Cl)C(C)=C(C)S6)S5,34.3,21.9,1.566210046,1,1,OX,PN,150,,,,
992,449,2019,4.57,4.51,10.32,0.453,0.98,IDIC-4H,5.7,3.87,1.83,O=C1C2=C(C(/C1=C/C3=CC4=C(C5=CC(C6(C7=CC=C(CCCCCC)C=C7)C8=CC=C(CCCCCC)C=C8)=C(C9=C6C=C(/C=C%10/C(C%11=C(C%10=O)C=CC=C%11)=C(C#N)/C#N)S9)C=C5C4(C%12=CC=C(CCCCCC)C=C%12)C%13=CC=C(CCCCCC)C=C%13)S3)=C(C#N)\C#N)C=CC=C2,1315.79,PBDB-T2Cl,5.51,3.57,1.94,CC(SC1=C2C3=CC(Cl)=C(CC(CC)CCCC)S3)=CC1=C(C4=CC(Cl)=C(CC(CC)CCCC)S4)C5=C2C=C(S5)C6=CC=C(C7=C8C(C(C9=C(CC(CC)CCCC)SC(CC(CC)CCCC)=C9C8=O)=O)=C(C%10=CC=C(C)S%10)S7)S6,99.064,42.7,2.32,1,1,CB,DIO,NA,,,,
993,449,2019,7.1,7.01,13,0.6191,0.88,IDIC-4F,5.73,3.93,1.8,O=C1C2=C(C(/C1=C/C3=CC4=C(C5=CC(C6(C7=CC=C(CCCCCC)C=C7)C8=CC=C(CCCCCC)C=C8)=C(C9=C6C=C(/C=C%10/C(C%11=C(C%10=O)C=C(F)C(F)=C%11)=C(C#N)/C#N)S9)C=C5C4(C%12=CC=C(CCCCCC)C=C%12)C%13=CC=C(CCCCCC)C=C%13)S3)=C(C#N)\C#N)C=C(F)C(F)=C2,1387.75,PBDB-T2Cl,5.51,3.57,1.94,CC(SC1=C2C3=CC(Cl)=C(CC(CC)CCCC)S3)=CC1=C(C4=CC(Cl)=C(CC(CC)CCCC)S4)C5=C2C=C(S5)C6=CC=C(C7=C8C(C(C9=C(CC(CC)CCCC)SC(CC(CC)CCCC)=C9C8=O)=O)=C(C%10=CC=C(C)S%10)S7)S6,99.064,42.7,2.32,1,1,CB,DIO,NA,,,,
994,449,2019,9.24,9.18,16.21,0.6869,0.83,IDIC-4Cl,5.78,4.02,1.76,O=C1C2=C(C(/C1=C/C3=CC4=C(C5=CC(C6(C7=CC=C(CCCCCC)C=C7)C8=CC=C(CCCCCC)C=C8)=C(C9=C6C=C(/C=C%10/C(C%11=C(C%10=O)C=C(Cl)C(Cl)=C%11)=C(C#N)/C#N)S9)C=C5C4(C%12=CC=C(CCCCCC)C=C%12)C%13=CC=C(CCCCCC)C=C%13)S3)=C(C#N)\C#N)C=C(Cl)C(Cl)=C2,1453,PBDB-T2Cl,5.51,3.57,1.94,CC(SC1=C2C3=CC(Cl)=C(CC(CC)CCCC)S3)=CC1=C(C4=CC(Cl)=C(CC(CC)CCCC)S4)C5=C2C=C(S5)C6=CC=C(C7=C8C(C(C9=C(CC(CC)CCCC)SC(CC(CC)CCCC)=C9C8=O)=O)=C(C%10=CC=C(C)S%10)S7)S6,99.064,42.7,2.32,1,1,CB,DIO,NA,,,,
995,450,2019,15.7,15.5,25.2,0.761,0.82,Y6,5.65,4.1,1.55,O=C(C(C=C(F)C(F)=C1)=C1C/2=C(C#N)/C#N)C2=C/C3=C(CCCCCCCCCCC)C(SC4=C5N(CC(CC)CCCC)C6=C4C7=NSN=C7C8=C6N(CC(CC)CCCC)C9=C8SC%10=C9SC(/C=C%11/C(C%12=C(C%11=O)C=C(F)C(F)=C%12)=C(C#N)\C#N)=C%10CCCCCCCCCCC)=C5S3,1453.56,PM6,5.56,3.5,2.06,CC(SC1=C2C3=CC(F)=C(CC(CC)CCCC)S3)=CC1=C(C4=CC(F)=C(CC(CC)CCCC)S4)C5=C2C=C(S5)C6=CC=C(C7=C8C(C(C9=C(CC(CC)CCCC)SC(CC(CC)CCCC)=C9C8=O)=O)=C(C%10=CC=C(C)S%10)S7)S6,98,49,2,1,1.2,CF,CN,110,150,,,
996,451,2019,11.16,10.95,16.92,0.681,0.969,MO-IDIC,5.69,3.89,1.8,CCCCCCC(C1=C2SC(/C=C3C(C(C=CC=C4)=C4C\3=C(C#N)\C#N)=O)=C1)(CCCCCC)C5=C2C(OC)=C(C(CCCCCC)(CCCCCC)C6=C7SC(/C=C8/C(C9=C(C8=O)C=CC=C9)=C(C#N)/C#N)=C6)C7=C5OC,1071.45,PTQ10,5.54,2.98,2.56,FC1=C(C2=CC=C(C)S2)C3=NC(OCC(CCCCCC)CCCCCCCC)=CN=C3C(C)=C1F,82.11,39.1,2.1,1,1,CF,NA,120,,,,
997,451,2019,13.46,13.1,19.87,0.748,0.906,MO-IDIC-2F,5.8,3.93,1.87,CCCCCCC(C1=C2SC(/C=C3C(C(C=CC(F)=C4)=C4C\3=C(C#N)\C#N)=O)=C1)(CCCCCC)C5=C2C(OC)=C(C(CCCCCC)(CCCCCC)C6=C7SC(/C=C8/C(C9=C(C8=O)C=CC(F)=C9)=C(C#N)/C#N)=C6)C7=C5OC,1107.43,PTQ10,5.54,2.98,2.56,FC1=C(C2=CC=C(C)S2)C3=NC(OCC(CCCCCC)CCCCCCCC)=CN=C3C(C)=C1F,82.11,39.1,2.1,1,1,CF,NA,110,127,,,
998,452,2019,13.42,13.22,22.44,0.691,0.87,Y1,5.45,3.95,1.5,CCCCC(CN1C2=C(C3=C1C(SC(/C=C4/C(C5=C(C4=O)C=CC=C5)=C(C#N)/C#N)=C6)=C6S3)C7=NN(N=C7C8=C2N(C9=C8SC%10=C9SC(/C=C%11C(C(C=CC=C%12)=C%12C\%11=C(C#N)\C#N)=O)=C%10)CC(CCCC)CC)CC(CCCC)CC)CC,1166.55,PBDB-T,5.39,3.5,1.89,CC(SC1=C2C3=CC=C(CC(CC)CCCC)S3)=CC1=C(C4=CC=C(CC(CC)CCCC)S4)C5=C2C=C(S5)C6=CC=C(C7=C8C(C(C9=C(CC(CC)CCCC)SC(CC(CC)CCCC)=C9C8=O)=O)=C(C%10=CC=C(C)S%10)S7)S6,117,58.5,2,1,1,CB,CN,NA,100,,,
999,452,2019,13.4,13.25,23.56,0.694,0.82,Y2,5.43,4.04,1.39,CCCCC(CN1C2=C(C3=C1C(SC(/C=C4/C(C5=CSC=C5C4=O)=C(C#N)/C#N)=C6)=C6S3)C7=NN(N=C7C8=C2N(C9=C8SC%10=C9SC(/C=C%11C(C%12=CSC=C%12C\%11=C(C#N)\C#N)=O)=C%10)CC(CCCC)CC)CC(CCCC)CC)CC,1178.6,PBDB-T,5.39,3.5,1.89,CC(SC1=C2C3=CC=C(CC(CC)CCCC)S3)=CC1=C(C4=CC=C(CC(CC)CCCC)S4)C5=C2C=C(S5)C6=CC=C(C7=C8C(C(C9=C(CC(CC)CCCC)SC(CC(CC)CCCC)=C9C8=O)=O)=C(C%10=CC=C(C)S%10)S7)S6,117,58.5,2,1,1,CB,CN,NA,100,,,
1000,453,2019,6.88,6.6,13.42,0.61,0.84,ID4F,5.83,3.86,1.97,O=C(C(C=C(F)C(F)=C1)=C1C/2=C(C#N)\C#N)C2=C/C(S3)=CC4=C3C5=C(C4(CCCCCC)CCCCCC)C=C6C(C(CCCCCC)(CCCCCC)C7=C6SC(/C=C8C(C(C=C(F)C(F)=C9)=C9C\8=C(C#N)/C#N)=O)=C7)=C5,1083.36,PBDB-TF,5.47,3.6,1.87,CC(SC1=C2C3=CC(F)=C(CC(CC)CCCC)S3)=CC1=C(C4=CC(F)=C(CC(CC)CCCC)S4)C5=C2C=C(S5)C6=CC=C(C7=C8C(C(C9=C(CC(CC)CCCC)SC(CC(CC)CCCC)=C9C8=O)=O)=C(C%10=CC=C(C)S%10)S7)S6,38.6,19.3,2,1,1.2,CB,NA,100,,,,