ID,Ref,year,PCE_max(%),PCE_ave(%),Jsc(mA/cm2),FF,Voc(V),Nickname(n),-HOMO_n(eV),-LUMO_n(eV),Eg_n(eV),n(SMILES),M (g/mol),Nickname(p),-HOMO_p(eV),-LUMO_p(eV),Eg_p(eV),p(SMILES),Mw (kg/mol),Mn(kg/mol),PDI,p/n ratio (p),p/n ratio (n),Solvent,Additive,TA (oC),thick (nm),,Journal,DOI
1001,453,2019,4.08,3.67,8.22,0.54,0.92,PTICH,5.62,3.8,1.82,O=C(C/1=C\C2=CC=C(C3=CC(OCC(CCCCCC)CCCCCCCC)=C(C4=CC=C(/C=C(/C(C5=C6C=C(F)C(F)=C5)=C(C#N)\C#N)C6=O)S4)C=C3OCC(CCCCCC)CCCCCCCC)S2)C7=C(C=C(F)C(F)=C7)C1=C(C#N)/C#N,1203.55,PBDB-TF,5.47,3.6,1.87,CC(SC1=C2C3=CC(F)=C(CC(CC)CCCC)S3)=CC1=C(C4=CC(F)=C(CC(CC)CCCC)S4)C5=C2C=C(S5)C6=CC=C(C7=C8C(C(C9=C(CC(CC)CCCC)SC(CC(CC)CCCC)=C9C8=O)=O)=C(C%10=CC=C(C)S%10)S7)S6,38.6,19.3,2,1,1.2,CB,NA,100,,,,
1002,453,2019,10.27,10.07,16.73,0.66,0.93,PTIC,5.59,3.81,1.78,O=C(C/1=C\C2=C(CCCCCC)C=C(C3=CC(OCC(CCCCCC)CCCCCCCC)=C(C4=CC(CCCCCC)=C(/C=C(/C(C5=C6C=C(F)C(F)=C5)=C(C#N)\C#N)C6=O)S4)C=C3OCC(CCCCCC)CCCCCCCC)S2)C7=C(C=C(F)C(F)=C7)C1=C(C#N)/C#N,1371.88,PBDB-TF,5.47,3.6,1.87,CC(SC1=C2C3=CC(F)=C(CC(CC)CCCC)S3)=CC1=C(C4=CC(F)=C(CC(CC)CCCC)S4)C5=C2C=C(S5)C6=CC=C(C7=C8C(C(C9=C(CC(CC)CCCC)SC(CC(CC)CCCC)=C9C8=O)=O)=C(C%10=CC=C(C)S%10)S7)S6,38.6,19.3,2,1,1.2,CB,NA,100,,,,
1003,453,2019,6.62,6.28,12.6,0.52,1.01,PTICO,5.48,3.66,1.82,O=C(C/1=C\C2=C(OCCCCCC)C=C(C3=CC(OCC(CCCCCC)CCCCCCCC)=C(C4=CC(OCCCCCC)=C(/C=C(/C(C5=C6C=C(F)C(F)=C5)=C(C#N)\C#N)C6=O)S4)C=C3OCC(CCCCCC)CCCCCCCC)S2)C7=C(C=C(F)C(F)=C7)C1=C(C#N)/C#N,1403.88,PBDB-TF,5.47,3.6,1.87,CC(SC1=C2C3=CC(F)=C(CC(CC)CCCC)S3)=CC1=C(C4=CC(F)=C(CC(CC)CCCC)S4)C5=C2C=C(S5)C6=CC=C(C7=C8C(C(C9=C(CC(CC)CCCC)SC(CC(CC)CCCC)=C9C8=O)=O)=C(C%10=CC=C(C)S%10)S7)S6,38.6,19.3,2,1,1.2,CB,NA,100,,,,
1004,454,2019,15.6,15.6,24.9,0.753,0.834,BTP-4F,5.65,4.02,1.63,CCCCC(CN1C2=C(C3=C1C(SC(/C=C4/C(C5=C(C4=O)C=C(F)C(F)=C5)=C(C#N)\C#N)=C6CCCCCCCCCCC)=C6S3)C7=NSN=C7C8=C2N(C9=C8SC%10=C9SC(/C=C%11C(C(C=C(F)C(F)=C%12)=C%12C\%11=C(C#N)\C#N)=O)=C%10CCCCCCCCCCC)CC(CCCC)CC)CC,1451.94,PBDB-TF,5.45,3.64,1.81,CC(SC1=C2C3=CC(F)=C(CC(CC)CCCC)S3)=CC1=C(C4=CC(F)=C(CC(CC)CCCC)S4)C5=C2C=C(S5)C6=CC=C(C7=C8C(C(C9=C(CC(CC)CCCC)SC(CC(CC)CCCC)=C9C8=O)=O)=C(C%10=CC=C(C)S%10)S7)S6,38.6,19.3,2,1,1,CB,CN,100,100,,,
1005,454,2019,16.5,16.1,25.4,0.75,0.859,BTP-4Cl,5.68,4.12,1.56,CCCCC(CN1C2=C(C3=C1C(SC(/C=C4/C(C5=C(C4=O)C=C(Cl)C(Cl)=C5)=C(C#N)\C#N)=C6CCCCCCCCCCC)=C6S3)C7=NSN=C7C8=C2N(C9=C8SC%10=C9SC(/C=C%11C(C(C=C(Cl)C(Cl)=C%12)=C%12C\%11=C(C#N)\C#N)=O)=C%10CCCCCCCCCCC)CC(CCCC)CC)CC,1517.74,PBDB-TF,5.45,3.64,1.81,CC(SC1=C2C3=CC(F)=C(CC(CC)CCCC)S3)=CC1=C(C4=CC(F)=C(CC(CC)CCCC)S4)C5=C2C=C(S5)C6=CC=C(C7=C8C(C(C9=C(CC(CC)CCCC)SC(CC(CC)CCCC)=C9C8=O)=O)=C(C%10=CC=C(C)S%10)S7)S6,38.6,19.3,2,1,1,CB,CN,100,100,,,
1006,455,2019,8.4,8.27,15.89,0.63,0.82,ITIC,6.06,4.05,2.01,CCCCCCC(C=C1)=CC=C1C2(C3=CC=C(CCCCCC)C=C3)C4=CC5=C(C(C6=C5SC7=C6SC(/C=C8C(C(C=CC=C9)=C9C\8=C(C#N)\C#N)=O)=C7)(C%10=CC=C(CCCCCC)C=C%10)C%11=CC=C(CCCCCC)C=C%11)C=C4C%12=C2C(SC(/C=C%13C(C(C=CC=C%14)=C%14C\%13=C(C#N)/C#N)=O)=C%15)=C%15S%12,1427.96,PTB7-Th,5.85,3.71,2.14,O=C(OCC(CC)CCCC)C1=C(F)C2=C(C)SC(C3=CC4=C(C(C5=CC=C(CC(CC)CCCC)S5)=C(C=C(C)S6)C6=C4C7=CC=C(CC(CC)CCCC)S7)S3)=C2S1,124,72.9,1.700960219,1,1,CB,NA,NA,,,,
1007,456,2019,5.88,5.76,13.3,0.434,1.01,O-IDTBR,5.48,3.87,1.61,O=C(/C(S1)=C/C(C2=NSN=C32)=CC=C3C(S4)=CC5=C4C6=CC(C(CCCCCCCC)(CCCCCCCC)C7=C8SC(C9=CC=C(/C=C%10SC(N(CC)C\%10=O)=S)C%11=NSN=C9%11)=C7)=C8C=C6C5(CCCCCCCC)CCCCCCCC)N(CC)C1=S,1326.02,PTB7-Th,5.23,3.64,1.59,O=C(OCC(CC)CCCC)C1=C(F)C2=C(C)SC(C3=CC4=C(C(C5=CC=C(CC(CC)CCCC)S5)=C(C=C(C)S6)C6=C4C7=CC=C(CC(CC)CCCC)S7)S3)=C2S1,100,50,2,1,0.5,DCB,NA,NA,85,,,
1008,456,2019,9,8.88,15.4,0.585,0.99,O-IDTBR,5.48,3.87,1.61,O=C(/C(S1)=C/C(C2=NSN=C32)=CC=C3C(S4)=CC5=C4C6=CC(C(CCCCCCCC)(CCCCCCCC)C7=C8SC(C9=CC=C(/C=C%10SC(N(CC)C\%10=O)=S)C%11=NSN=C9%11)=C7)=C8C=C6C5(CCCCCCCC)CCCCCCCC)N(CC)C1=S,1326.02,PTB7-Th,5.23,3.64,1.59,O=C(OCC(CC)CCCC)C1=C(F)C2=C(C)SC(C3=CC4=C(C(C5=CC=C(CC(CC)CCCC)S5)=C(C=C(C)S6)C6=C4C7=CC=C(CC(CC)CCCC)S7)S3)=C2S1,100,50,2,1,1,DCB,NA,NA,85,,,
1009,456,2019,9.42,9.09,15,0.616,0.99,O-IDTBR,5.48,3.87,1.61,O=C(/C(S1)=C/C(C2=NSN=C32)=CC=C3C(S4)=CC5=C4C6=CC(C(CCCCCCCC)(CCCCCCCC)C7=C8SC(C9=CC=C(/C=C%10SC(N(CC)C\%10=O)=S)C%11=NSN=C9%11)=C7)=C8C=C6C5(CCCCCCCC)CCCCCCCC)N(CC)C1=S,1326.02,PTB7-Th,5.23,3.64,1.59,O=C(OCC(CC)CCCC)C1=C(F)C2=C(C)SC(C3=CC4=C(C(C5=CC=C(CC(CC)CCCC)S5)=C(C=C(C)S6)C6=C4C7=CC=C(CC(CC)CCCC)S7)S3)=C2S1,100,50,2,1,1.5,DCB,NA,NA,85,,,
1010,456,2019,9.18,8.91,14.4,0.625,1,O-IDTBR,5.48,3.87,1.61,O=C(/C(S1)=C/C(C2=NSN=C32)=CC=C3C(S4)=CC5=C4C6=CC(C(CCCCCCCC)(CCCCCCCC)C7=C8SC(C9=CC=C(/C=C%10SC(N(CC)C\%10=O)=S)C%11=NSN=C9%11)=C7)=C8C=C6C5(CCCCCCCC)CCCCCCCC)N(CC)C1=S,1326.02,PTB7-Th,5.23,3.64,1.59,O=C(OCC(CC)CCCC)C1=C(F)C2=C(C)SC(C3=CC4=C(C(C5=CC=C(CC(CC)CCCC)S5)=C(C=C(C)S6)C6=C4C7=CC=C(CC(CC)CCCC)S7)S3)=C2S1,100,50,2,1,2,DCB,NA,NA,85,,,
1011,456,2019,8.37,8.18,13.6,0.613,1,O-IDTBR,5.48,3.87,1.61,O=C(/C(S1)=C/C(C2=NSN=C32)=CC=C3C(S4)=CC5=C4C6=CC(C(CCCCCCCC)(CCCCCCCC)C7=C8SC(C9=CC=C(/C=C%10SC(N(CC)C\%10=O)=S)C%11=NSN=C9%11)=C7)=C8C=C6C5(CCCCCCCC)CCCCCCCC)N(CC)C1=S,1326.02,PTB7-Th,5.23,3.64,1.59,O=C(OCC(CC)CCCC)C1=C(F)C2=C(C)SC(C3=CC4=C(C(C5=CC=C(CC(CC)CCCC)S5)=C(C=C(C)S6)C6=C4C7=CC=C(CC(CC)CCCC)S7)S3)=C2S1,100,50,2,1,2.5,DCB,NA,NA,85,,,
1012,457,2019,4.3,4.1,6.7,0.56,1.07,EH-IDTBR,5.57,3.91,1.66,O=C(/C(S1)=C/C(C2=NSN=C32)=CC=C3C(S4)=CC5=C4C6=CC(C(CC(CC)CCCC)(CC(CC)CCCC)C7=C8SC(C9=CC=C(/C=C%10SC(N(CC)C\%10=O)=S)C%11=NSN=C9%11)=C7)=C8C=C6C5(CC(CC)CCCC)CC(CC)CCCC)N(CC)C1=S,1326.02,P6T-F00,5.28,3.28,2,CC1=C(CC(CCCCCCCCCC)CCCCCCCCCCCC)C=C(C2=CC=C(C3=CC=C(C4=CC(CC(CCCCCCCCCC)CCCCCCCCCCCC)=C(C5=CC=C(C6=CC=C(C)S6)S5)S4)S3)S2)S1,62,34.44,1.800232288,1,1,CB,NA,80,100,,,
1013,457,2019,7.3,7.2,11.2,0.66,0.99,EH-IDTBR,5.57,3.91,1.66,O=C(/C(S1)=C/C(C2=NSN=C32)=CC=C3C(S4)=CC5=C4C6=CC(C(CC(CC)CCCC)(CC(CC)CCCC)C7=C8SC(C9=CC=C(/C=C%10SC(N(CC)C\%10=O)=S)C%11=NSN=C9%11)=C7)=C8C=C6C5(CC(CC)CCCC)CC(CC)CCCC)N(CC)C1=S,1326.02,P6T-F100,5.25,3.33,1.92,CC1=C(CC(CCCCCCCCCC)CCCCCCCCCCCC)C=C(C2=CC=C(C3=CC=C(C4=CC(CC(CCCCCCCCCC)CCCCCCCCCCCC)=C(C5=CC(F)=C(C6=C(F)C=C(C)S6)S5)S4)S3)S2)S1,68,40,1.7,1,1,CB,NA,80,100,,,
1014,458,2019,9.68,9.05,15.88,0.67,0.85,ITIC,5.6,3.93,1.67,CCCCCCC(C=C1)=CC=C1C2(C3=CC=C(CCCCCC)C=C3)C4=CC5=C(C(C6=C5SC7=C6SC(/C=C8C(C(C=CC=C9)=C9C\8=C(C#N)\C#N)=O)=C7)(C%10=CC=C(CCCCCC)C=C%10)C%11=CC=C(CCCCCC)C=C%11)C=C4C%12=C2C(SC(/C=C%13C(C(C=CC=C%14)=C%14C\%13=C(C#N)/C#N)=O)=C%15)=C%15S%12,1427.96,PBDB-T,5.33,3.53,1.8,CC(SC1=C2C3=CC=C(CC(CC)CCCC)S3)=CC1=C(C4=CC=C(CC(CC)CCCC)S4)C5=C2C=C(S5)C6=CC=C(C7=C8C(C(C9=C(CC(CC)CCCC)SC(CC(CC)CCCC)=C9C8=O)=O)=C(C%10=CC=C(C)S%10)S7)S6,117,58.5,2,1,1,CB,DIO,160,,,,
1015,459,2019,11.45,11.14,18.31,0.721,0.86,ITIC-2Cl-Th,5.31,3.74,1.57,CCCCCCC(C=C1)=CC=C1C2(C3=CC=C(CCCCCC)C=C3)C4=CC5=C(C(C6=C5SC7=C6SC(/C=C8C(C9=CSC=C9C\8=C(C#N)\C#N)=O)=C7)(C%10=CC=C(CCCCCC)C=C%10)C%11=CC=C(CCCCCC)C=C%11)C=C4C%12=C2C(SC(/C=C%13C(C(C=C(Cl)C(Cl)=C%14)=C%14C\%13=C(C#N)/C#N)=O)=C%15)=C%15S%12,1502.86,PM6,5.5,3.61,1.89,CC(SC1=C2C3=CC(F)=C(CC(CC)CCCC)S3)=CC1=C(C4=CC(F)=C(CC(CC)CCCC)S4)C5=C2C=C(S5)C6=CC=C(C7=C8C(C(C9=C(CC(CC)CCCC)SC(CC(CC)CCCC)=C9C8=O)=O)=C(C%10=CC=C(C)S%10)S7)S6,38.6,19.3,2,1,1,CB,DIO,NA,,,,
1016,459,2019,12.25,11.98,18.02,0.726,0.91,ITIC-Cl-γ-Th,5.3,3.66,1.64,CCCCCCC(C=C1)=CC=C1C2(C3=CC=C(CCCCCC)C=C3)C4=CC5=C(C(C6=C5SC7=C6SC(/C=C8C(C9=CSC=C9C\8=C(C#N)\C#N)=O)=C7)(C%10=CC=C(CCCCCC)C=C%10)C%11=CC=C(CCCCCC)C=C%11)C=C4C%12=C2C(SC(/C=C%13C(C(C=C(Cl)C=C%14)=C%14C\%13=C(C#N)/C#N)=O)=C%15)=C%15S%12,1468.42,PM6,5.5,3.61,1.89,CC(SC1=C2C3=CC(F)=C(CC(CC)CCCC)S3)=CC1=C(C4=CC(F)=C(CC(CC)CCCC)S4)C5=C2C=C(S5)C6=CC=C(C7=C8C(C(C9=C(CC(CC)CCCC)SC(CC(CC)CCCC)=C9C8=O)=O)=C(C%10=CC=C(C)S%10)S7)S6,38.6,19.3,2,1,1,CB,DIO,NA,,,,
1017,459,2019,11.13,10.88,17.27,0.719,0.89,ITIC-Cl-δ-Th,5.31,3.7,1.61,CCCCCCC(C=C1)=CC=C1C2(C3=CC=C(CCCCCC)C=C3)C4=CC5=C(C(C6=C5SC7=C6SC(/C=C8C(C9=CSC=C9C\8=C(C#N)\C#N)=O)=C7)(C%10=CC=C(CCCCCC)C=C%10)C%11=CC=C(CCCCCC)C=C%11)C=C4C%12=C2C(SC(/C=C%13C(C(C=CC(Cl)=C%14)=C%14C\%13=C(C#N)/C#N)=O)=C%15)=C%15S%12,1468.42,PM6,5.5,3.61,1.89,CC(SC1=C2C3=CC(F)=C(CC(CC)CCCC)S3)=CC1=C(C4=CC(F)=C(CC(CC)CCCC)S4)C5=C2C=C(S5)C6=CC=C(C7=C8C(C(C9=C(CC(CC)CCCC)SC(CC(CC)CCCC)=C9C8=O)=O)=C(C%10=CC=C(C)S%10)S7)S6,38.6,19.3,2,1,1,CB,DIO,NA,,,,
1018,460,2019,10.1,9.7,15.49,0.586,1.069,ITIC2,5.48,3.84,1.64,O=C1C2=C(C=CC=C2)C(/C1=C/C3=CC(C(C4=CC=C(CCCCCC)C=C4)(C5=C6SC7=C(C8=CC=C(CC(CCCC)CC)S8)C9=C(C(C%10=CC=C(CC(CC)CCCC)S%10)=C57)SC(C%11=C%12C=C(/C=C%13/C(C(C=CC=C%14)=C%14C%13=O)=C(C#N)\C#N)S%11)=C9C%12(C%15=CC=C(CCCCCC)C=C%15)C%16=CC=C(CCCCCC)C=C%16)C%17=CC=C(CCCCCC)C=C%17)=C6S3)=C(C#N)\C#N,1816.63,PBDB-T-SF,5.4,3.6,1.8,CC(SC1=C2C3=CC(F)=C(SCC(CC)CCCC)S3)=CC1=C(C4=CC(F)=C(SCC(CC)CCCC)S4)C5=C2C=C(C6=CC=C(C7=C8C(C(C9=C(CC(CC)CCCC)SC(CC(CC)CCCC)=C9C8=O)=O)=C(C%10=CC=C(C)S%10)S7)S6)S5,58.194,18.348,3.171680837,1,1,CF,NA,NA,100,,,
1019,460,2019,11.6,11.4,16.4,0.663,1.046,ITIC-S,5.5,3.86,1.64,O=C1C2=C(C=CC=C2)C(/C1=C/C3=CC(C(C4=CC=C(CCCCCC)C=C4)(C5=C6SC7=C(C8=CC=C(SCC(CCCC)CC)S8)C9=C(C(C%10=CC=C(SCC(CC)CCCC)S%10)=C57)SC(C%11=C%12C=C(/C=C%13/C(C(C=CC=C%14)=C%14C%13=O)=C(C#N)\C#N)S%11)=C9C%12(C%15=CC=C(CCCCCC)C=C%15)C%16=CC=C(CCCCCC)C=C%16)C%17=CC=C(CCCCCC)C=C%17)=C6S3)=C(C#N)\C#N,1880.75,PBDB-T-SF,5.4,3.6,1.8,CC(SC1=C2C3=CC(F)=C(SCC(CC)CCCC)S3)=CC1=C(C4=CC(F)=C(SCC(CC)CCCC)S4)C5=C2C=C(C6=CC=C(C7=C8C(C(C9=C(CC(CC)CCCC)SC(CC(CC)CCCC)=C9C8=O)=O)=C(C%10=CC=C(C)S%10)S7)S6)S5,58.194,18.348,3.171680837,1,1,CF,NA,NA,100,,,
1020,461,2019,10.86,10.54,17.91,0.6611,0.88,ITIC,5.6,3.85,1.75,CCCCCCC(C=C1)=CC=C1C2(C3=CC=C(CCCCCC)C=C3)C4=CC5=C(C(C6=C5SC7=C6SC(/C=C8C(C(C=CC=C9)=C9C\8=C(C#N)\C#N)=O)=C7)(C%10=CC=C(CCCCCC)C=C%10)C%11=CC=C(CCCCCC)C=C%11)C=C4C%12=C2C(SC(/C=C%13C(C(C=CC=C%14)=C%14C\%13=C(C#N)/C#N)=O)=C%15)=C%15S%12,1427.96,p-PBDTPS-FTAZ,5.32,3.36,1.96,CC(SC1=C2C3=CC=C(SCC(CC)CCCC)C=C3)=CC1=C(C4=CC=C(SCC(CC)CCCC)C=C4)C5=C2C=C(C6=CC=C(C7=C(F)C(F)=C(C8=CC=C(C)S8)C9=NN(CC(CCCCCC)CCCCCCCC)N=C97)S6)S5,48.3,23,2.1,1,1,DCB,NA,NA,,,,
1021,461,2019,13.16,13.01,18.02,0.7153,0.95,ITIC,5.6,3.85,1.75,CCCCCCC(C=C1)=CC=C1C2(C3=CC=C(CCCCCC)C=C3)C4=CC5=C(C(C6=C5SC7=C6SC(/C=C8C(C(C=CC=C9)=C9C\8=C(C#N)\C#N)=O)=C7)(C%10=CC=C(CCCCCC)C=C%10)C%11=CC=C(CCCCCC)C=C%11)C=C4C%12=C2C(SC(/C=C%13C(C(C=CC=C%14)=C%14C\%13=C(C#N)/C#N)=O)=C%15)=C%15S%12,1427.96,m-PBDTPS-FTAZ,5.4,3.4,2,CC(SC1=C2C3=CC=CC(SCC(CC)CCCC)=C3)=CC1=C(C4=CC(SCC(CC)CCCC)=CC=C4)C5=C2C=C(C6=CC=C(C7=C(F)C(F)=C(C8=CC=C(C)S8)C9=NN(CC(CCCCCC)CCCCCCCC)N=C97)S6)S5,38,20,1.9,1,1,DCB,NA,NA,,,,
1022,462,2019,9.33,9.14,15.83,0.6376,0.85,BDCPDT-IC,5.41,3.87,1.54,CCCCCCC1=CC=C(C2(C3=CC=C(CCCCCC)C=C3)C4=C(SC(/C=C5C(C(C=CC=C6)=C6C\5=C(C#N)\C#N)=O)=C4)C7=C2C8=C(S7)C=C9C(SC%10=C9C(C%11=CC=C(CCCCCC)C=C%11)(C%12=CC=C(CCCCCC)C=C%12)C%13=C%10SC(/C=C%14C(C(C=CC=C%15)=C%15C\%14=C(C#N)/C#N)=O)=C%13)=C8)C=C1,1427.96,PBDB-T,5.36,3.54,1.82,CC(SC1=C2C3=CC=C(CC(CC)CCCC)S3)=CC1=C(C4=CC=C(CC(CC)CCCC)S4)C5=C2C=C(S5)C6=CC=C(C7=C8C(C(C9=C(CC(CC)CCCC)SC(CC(CC)CCCC)=C9C8=O)=O)=C(C%10=CC=C(C)S%10)S7)S6,117,58.5,2,1,1,CB,NA,NA,,,,
1023,462,2019,10.82,10.52,18.31,0.6249,0.92,BDCPDT-BC,5.4,3.85,1.55,CCCCCCC1=CC=C(C2(C3=CC=C(CCCCCC)C=C3)C4=C(SC(/C=C5C(C(C(C=CC=C6)=C6S7)=C7C\5=C(C#N)\C#N)=O)=C4)C8=C2C9=C(S8)C=C%10C(SC%11=C%10C(C%12=CC=C(CCCCCC)C=C%12)(C%13=CC=C(CCCCCC)C=C%13)C%14=C%11SC(/C=C%15C(C(C(C=CC=C%16)=C%16S%17)=C%17C\%15=C(C#N)/C#N)=O)=C%14)=C9)C=C1,1540.12,PBDB-T,5.36,3.54,1.82,CC(SC1=C2C3=CC=C(CC(CC)CCCC)S3)=CC1=C(C4=CC=C(CC(CC)CCCC)S4)C5=C2C=C(S5)C6=CC=C(C7=C8C(C(C9=C(CC(CC)CCCC)SC(CC(CC)CCCC)=C9C8=O)=O)=C(C%10=CC=C(C)S%10)S7)S6,117,58.5,2,1,1,CB,NA,NA,,,,
1024,462,2019,9.25,9.25,14.26,0.6408,0.97,DTCC-BC,5.46,3.81,1.65,O=C(C(C(C=CC=C1)=C1S2)=C2C/3=C(C#N)/C#N)C3=C/C(S4)=CC5=C4C6=C(C(C7=CC=C(CCCCCCCC)C=C7)5C8=CC=CC(CCCCCCCC)=C8)C=C9C(N(C(CCCCCCCC)CCCCCCCC)C%10=C9C=C%11C(C(SC(/C=C%12C(C%13=C(SC%14=C%13C=CC=C%14)C\%12=C(C#N)\C#N)=O)=C%15)=C%15C%11(C%16=CC=C(CCCCCCCC)C=C%16)C%17=CC=C(CCCCCCCC)C=C%17)=C%10)=C6,1867.73,PBDB-T,5.36,3.54,1.82,CC(SC1=C2C3=CC=C(CC(CC)CCCC)S3)=CC1=C(C4=CC=C(CC(CC)CCCC)S4)C5=C2C=C(S5)C6=CC=C(C7=C8C(C(C9=C(CC(CC)CCCC)SC(CC(CC)CCCC)=C9C8=O)=O)=C(C%10=CC=C(C)S%10)S7)S6,117,58.5,2,1,1.5,CB,NA,NA,,,,
1025,462,2019,10.74,10.46,17.16,0.6154,0.98,DTCC-IC,5.47,3.83,1.64,O=C(C(C=CC=C1)=C1C/2=C(C#N)/C#N)C2=C/C(S3)=CC4=C3C5=C(C(C6=CC=C(CCCCCCCC)C=C6)4C7=CC=CC(CCCCCCCC)=C7)C=C8C(N(C(CCCCCCCC)CCCCCCCC)C9=C8C=C%10C(C(SC(/C=C%11C(C(C=CC=C%12)=C%12C\%11=C(C#N)\C#N)=O)=C%13)=C%13C%10(C%14=CC=C(CCCCCCCC)C=C%14)C%15=CC=C(CCCCCCCC)C=C%15)=C9)=C5,1755.56,PBDB-T,5.36,3.54,1.82,CC(SC1=C2C3=CC=C(CC(CC)CCCC)S3)=CC1=C(C4=CC=C(CC(CC)CCCC)S4)C5=C2C=C(S5)C6=CC=C(C7=C8C(C(C9=C(CC(CC)CCCC)SC(CC(CC)CCCC)=C9C8=O)=O)=C(C%10=CC=C(C)S%10)S7)S6,117,58.5,2,1,1.5,CB,NA,NA,,,,
1026,462,2019,10.05,10.01,16.74,0.6416,0.92,ITIC,5.61,4.01,1.6,CCCCCCC(C=C1)=CC=C1C2(C3=CC=C(CCCCCC)C=C3)C4=CC5=C(C(C6=C5SC7=C6SC(/C=C8C(C(C=CC=C9)=C9C\8=C(C#N)\C#N)=O)=C7)(C%10=CC=C(CCCCCC)C=C%10)C%11=CC=C(CCCCCC)C=C%11)C=C4C%12=C2C(SC(/C=C%13C(C(C=CC=C%14)=C%14C\%13=C(C#N)/C#N)=O)=C%15)=C%15S%12,1427.96,PBDB-T,5.36,3.54,1.82,CC(SC1=C2C3=CC=C(CC(CC)CCCC)S3)=CC1=C(C4=CC=C(CC(CC)CCCC)S4)C5=C2C=C(S5)C6=CC=C(C7=C8C(C(C9=C(CC(CC)CCCC)SC(CC(CC)CCCC)=C9C8=O)=O)=C(C%10=CC=C(C)S%10)S7)S6,117,58.5,2,1,1,CB,NA,NA,,,,
1027,462,2019,12.07,11.7,19.61,0.6348,0.94,ITBC,5.49,3.9,1.59,CCCCCCC(C=C1)=CC=C1C2(C3=CC=C(CCCCCC)C=C3)C4=CC5=C(C(C6=C5SC7=C6SC(/C=C8S(C(C=CC=C9)=C9C\8=C(C#N)\C#N)(=O)=O)=C7)(C%10=CC=C(CCCCCC)C=C%10)C%11=CC=C(CCCCCC)C=C%11)C=C4C%12=C2C(SC(/C=C%13S(C(C=CC=C%14)=C%14C\%13=C(C#N)/C#N)(=O)=O)=C%15)=C%15S%12,1500.05,PBDB-T,5.36,3.54,1.82,CC(SC1=C2C3=CC=C(CC(CC)CCCC)S3)=CC1=C(C4=CC=C(CC(CC)CCCC)S4)C5=C2C=C(S5)C6=CC=C(C7=C8C(C(C9=C(CC(CC)CCCC)SC(CC(CC)CCCC)=C9C8=O)=O)=C(C%10=CC=C(C)S%10)S7)S6,117,58.5,2,1,1.2,CB,NA,NA,,,,
1028,463,2019,9,8.8,16.01,0.6,0.92,ATT-1,5.51,3.68,1.83,CCCCCCC1=CC=C(C2(C3=CC=C(CCCCCC)C=C3)C4=CC5=C(C(C6=CC=C(CCCCCC)C=C6)(C7=CC=C(CCCCCC)C=C7)C8=C5SC(C9=C(C=C(C(OCCCCCCCC)=O)S%10)C%10=C(/C=C(S/%11)/C(N(CC)C%11=C(C#N)/C#N)=O)S9)=C8)C=C4C%12=C2C=C(C%13=C(C=C(C(OCCCCCCCC)=O)S%14)C%14=C(/C=C(S/%15)/C(N(CC)C%15=C(C#N)\C#N)=O)S%13)S%12)C=C1,1902.71,PBDB-T,5.33,2.92,2.41,CC(SC1=C2C3=CC=C(CC(CC)CCCC)S3)=CC1=C(C4=CC=C(CC(CC)CCCC)S4)C5=C2C=C(S5)C6=CC=C(C7=C8C(C(C9=C(CC(CC)CCCC)SC(CC(CC)CCCC)=C9C8=O)=O)=C(C%10=CC=C(C)S%10)S7)S6,117,58.5,2,1,1,CF,NA,160,100,,,
1029,463,2019,11.22,10.92,17.13,0.68,0.925,ATT-4,5.41,3.62,1.79,O=C(/C(S/1)=C/C(S2)=C3C(C=C(C(OCCCCCCCC)=O)S3)=C2C(S4)=CC5=C4C6=CC(C(CCCCCC)(CCCCCC)C7=C8SC(C9=C(C=C(C(OCCCCCCCC)=O)S%10)C%10=C(/C=C(S/%11)/C(N(CC)C%11=C(C#N)/C#N)=O)S9)=C7)=C8C=C6C5(CCCCCC)CCCCCC)N(CC)C1=C(C#N)\C#N,1598.32,PBDB-T,5.33,2.92,2.41,CC(SC1=C2C3=CC=C(CC(CC)CCCC)S3)=CC1=C(C4=CC=C(CC(CC)CCCC)S4)C5=C2C=C(S5)C6=CC=C(C7=C8C(C(C9=C(CC(CC)CCCC)SC(CC(CC)CCCC)=C9C8=O)=O)=C(C%10=CC=C(C)S%10)S7)S6,117,58.5,2,1,1,CF,NA,160,100,,,
1030,463,2019,12.36,11.97,18.56,0.7,0.927,ATT-5,5.41,3.6,1.81,O=C(/C(S/1)=C/C(S2)=C3C(C=C(C(OCC(CC)CCCC)=O)S3)=C2C(S4)=CC5=C4C6=CC(C(CCCCCC)(CCCCCC)C7=C8SC(C9=C(C=C(C(OCC(CC)CCCC)=O)S%10)C%10=C(/C=C(S/%11)/C(N(CC)C%11=C(C#N)/C#N)=O)S9)=C7)=C8C=C6C5(CCCCCC)CCCCCC)N(CC)C1=C(C#N)\C#N,1598.32,PBDB-T,5.33,2.92,2.41,CC(SC1=C2C3=CC=C(CC(CC)CCCC)S3)=CC1=C(C4=CC=C(CC(CC)CCCC)S4)C5=C2C=C(S5)C6=CC=C(C7=C8C(C(C9=C(CC(CC)CCCC)SC(CC(CC)CCCC)=C9C8=O)=O)=C(C%10=CC=C(C)S%10)S7)S6,117,58.5,2,1,1,CF,NA,160,100,,,
1031,464,2019,11.6,11.3,19.3,0.719,0.81,IT-4F,5.66,4.14,1.52,CCCCCCC(C=C1)=CC=C1C2(C3=CC=C(CCCCCC)C=C3)C4=CC5=C(C(C6=C5SC7=C6SC(/C=C8C(C(C=C(F)C(F)=C9)=C9C\8=C(C#N)\C#N)=O)=C7)(C%10=CC=C(CCCCCC)C=C%10)C%11=CC=C(CCCCCC)C=C%11)C=C4C%12=C2C(SC(/C=C%13C(C(C=C(F)C(F)=C%14)=C%14C\%13=C(C#N)/C#N)=O)=C%15)=C%15S%12,1499.92,PBDB-T-2F,5.45,3.65,1.8,CC(SC1=C2C3=CC(F)=C(CC(CC)CCCC)S3)=CC1=C(C4=CC(F)=C(CC(CC)CCCC)S4)C5=C2C=C(C6=CC=C(C7=C8C(C(C9=C(CC(CC)CCCC)SC(CC(CC)CCCC)=C9C8=O)=O)=C(C%10=CC=C(C)S%10)S7)S6)S5,87.845,30.282,2.900898223,1,1,CB/CF,DIO,100,120,,,
1032,465,2019,6.6,5.8,10.8,0.5,1.07,tPDI2N-EH,5.9,3.7,2.2,O=C(N(C(CC)CC)C1=O)C2=CC=C3C4=C(C5=C6C=C(C(N(C(CC)CC)C7=O)=O)C8=C7C=C(C9=CC%10=C%11C(C%12=C(N%13CC(CC)CCCC)C=C%11C(N(C(CC)CC)C%10=O)=O)=C9C%14=CC=C(C(N(C(CC)CC)C%15=O)=O)C%16=C%15C=C%13C%12=C%14%16)C3=C58)C(N6CC(CCCC)CC)=CC1=C42,1309.66,QX-3,5.4,3.1,2.3,CC(SC1=C2C3=CC=C(CC(CC)CCCC)S3)=CC1=C(C4=CC=C(CC(CC)CCCC)S4)C5=C2C=C(C6=CC=C(C7=C(F)C(F)=C(C8=CC=C(C)S8)C9=C7N=C(C%10=CC(F)=C(CC(CC)CCCC)C(F)=C%10)C(C%11=CC(F)=C(CC(CC)CCCC)C(F)=C%11)=N9)S6)S5,50,25,2,1,1,TL,NA,NA,,,,
1033,465,2019,5.8,4.7,9.2,0.47,1.08,tPDI2N-EH,5.9,3.7,2.2,O=C(N(C(CC)CC)C1=O)C2=CC=C3C4=C(C5=C6C=C(C(N(C(CC)CC)C7=O)=O)C8=C7C=C(C9=CC%10=C%11C(C%12=C(N%13CC(CC)CCCC)C=C%11C(N(C(CC)CC)C%10=O)=O)=C9C%14=CC=C(C(N(C(CC)CC)C%15=O)=O)C%16=C%15C=C%13C%12=C%14%16)C3=C58)C(N6CC(CCCC)CC)=CC1=C42,1309.66,QX-3,5.4,3.1,2.3,CC(SC1=C2C3=CC=C(CC(CC)CCCC)S3)=CC1=C(C4=CC=C(CC(CC)CCCC)S4)C5=C2C=C(C6=CC=C(C7=C(F)C(F)=C(C8=CC=C(C)S8)C9=C7N=C(C%10=CC(F)=C(CC(CC)CCCC)C(F)=C%10)C(C%11=CC(F)=C(CC(CC)CCCC)C(F)=C%11)=N9)S6)S5,50,25,2,1,1,TL,DIO,NA,,,,
1034,465,2019,7.3,6.2,11.1,0.54,1.09,tPDI2N-EH,5.9,3.7,2.2,O=C(N(C(CC)CC)C1=O)C2=CC=C3C4=C(C5=C6C=C(C(N(C(CC)CC)C7=O)=O)C8=C7C=C(C9=CC%10=C%11C(C%12=C(N%13CC(CC)CCCC)C=C%11C(N(C(CC)CC)C%10=O)=O)=C9C%14=CC=C(C(N(C(CC)CC)C%15=O)=O)C%16=C%15C=C%13C%12=C%14%16)C3=C58)C(N6CC(CCCC)CC)=CC1=C42,1309.66,QX-3,5.4,3.1,2.3,CC(SC1=C2C3=CC=C(CC(CC)CCCC)S3)=CC1=C(C4=CC=C(CC(CC)CCCC)S4)C5=C2C=C(C6=CC=C(C7=C(F)C(F)=C(C8=CC=C(C)S8)C9=C7N=C(C%10=CC(F)=C(CC(CC)CCCC)C(F)=C%10)C(C%11=CC(F)=C(CC(CC)CCCC)C(F)=C%11)=N9)S6)S5,50,25,2,1,1,TL,DPE,NA,,,,
1035,466,2019,11,10.9,19.1,0.606,0.92,IEICO-4F,5.44,4.19,1.25,CCCCCCC(C=C1)=CC=C1C(C2=C3SC(C4=C(OCC(CC)CCCC)C=C(/C=C5C(C(C=C(F)C(F)=C6)=C6C\5=C(C#N)\C#N)=O)S4)=C2)(C7=CC=C(CCCCCC)C=C7)C8=C3C=C(C(C9=C%10SC(C(S%11)=C(C=C%11/C=C%12/C(C(C=C%13F)=C(C%12=O)C=C%13F)=C(C#N)/C#N)OCC(CCCC)CC)=C9)(C%14=CC=C(CCCCCC)C=C%14)C%15=CC=C(CCCCCC)C=C%15)C%10=C8,1808.42,PBDB-T,5.33,3.53,1.8,CC(SC1=C2C3=CC=C(CC(CC)CCCC)S3)=CC1=C(C4=CC=C(CC(CC)CCCC)S4)C5=C2C=C(S5)C6=CC=C(C7=C8C(C(C9=C(CC(CC)CCCC)SC(CC(CC)CCCC)=C9C8=O)=O)=C(C%10=CC=C(C)S%10)S7)S6,117,58.5,2,1,1,CB,NA,NA,110,,,
1036,467,2019,12.96,12.85,18.84,0.7449,0.881,IT-4F,5.66,4.14,1.52,CCCCCCC(C=C1)=CC=C1C2(C3=CC=C(CCCCCC)C=C3)C4=CC5=C(C(C6=C5SC7=C6SC(/C=C8C(C(C=C(F)C(F)=C9)=C9C\8=C(C#N)\C#N)=O)=C7)(C%10=CC=C(CCCCCC)C=C%10)C%11=CC=C(CCCCCC)C=C%11)C=C4C%12=C2C(SC(/C=C%13C(C(C=C(F)C(F)=C%14)=C%14C\%13=C(C#N)/C#N)=O)=C%15)=C%15S%12,1499.92,PBDB-T-2Cl,5.5,3.6,1.9,CC(SC1=C2C3=CC(Cl)=C(CC(CC)CCCC)S3)=CC1=C(C4=CC(Cl)=C(CC(CC)CCCC)S4)C5=C2C=C(S5)C6=CC=C(C7=C8C(C(C9=C(CC(CC)CCCC)SC(CC(CC)CCCC)=C9C8=O)=O)=C(C%10=CC=C(C)S%10)S7)S6,44.88,25.5,1.76,1,1,CB,DIO,100,100,,,
1037,468,2019,10.59,10.38,17.52,0.645,0.918,BDTB-Ph,5.49,3.76,1.73,O=C1C2=C(C=CC=C2)C(/C1=C\C3=CC(C(C4=CC=C(CCCCCC)C=C4)(C5=C6SC7=C(C(C=C8)=CC=C8SCC(CCCC)CC)C9=C(C(C%10=CC=C(C=C%10)SCC(CC)CCCC)=C57)SC(C%11=C%12C=C(/C=C%13\C(C(C=CC=C%14)=C%14C%13=O)=C(C#N)/C#N)S%11)=C9C%12(C%15=CC=C(CCCCCC)C=C%15)C%16=CC=C(CCCCCC)C=C%16)C%17=CC=C(CCCCCC)C=C%17)=C6S3)=C(C#N)\C#N,1868.7,PBDT-BZ,5.38,3.56,1.82,CC(SC1=C2C3=CC=C(SCC(CCCC)CCCCCC)S3)=CC1=C(C4=CC=C(SCC(CCCC)CCCCCC)S4)C5=C2C=C(C6=CC=C(C7=C(F)C(F)=C(C8=CC=C(C)S8)C9=NN(CC(CCCCCC)CCCCCCCC)N=C97)S6)S5,68.4,34.2,2,1,1,CB,NA,120,,,,
1038,468,2019,10.14,10.01,17.66,0.626,0.888,BDTB-Na,5.5,3.8,1.7,O=C1C2=C(C=C3C(C=CC=C3)=C2)C(/C1=C\C4=CC(C(C5=CC=C(CCCCCC)C=C5)(C6=C7SC8=C(C(C=C9)=CC=C9SCC(CCCC)CC)C%10=C(C(C%11=CC=C(C=C%11)SCC(CC)CCCC)=C68)SC(C%12=C%13C=C(/C=C%14\C(C(C=C%15C(C=CC=C%15)=C%16)=C%16C%14=O)=C(C#N)/C#N)S%12)=C%10C%13(C%17=CC=C(CCCCCC)C=C%17)C%18=CC=C(CCCCCC)C=C%18)C%19=CC=C(CCCCCC)C=C%19)=C7S4)=C(C#N)\C#N,1968.82,PBDT-BZ,5.38,3.56,1.82,CC(SC1=C2C3=CC=C(SCC(CCCC)CCCCCC)S3)=CC1=C(C4=CC=C(SCC(CCCC)CCCCCC)S4)C5=C2C=C(C6=CC=C(C7=C(F)C(F)=C(C8=CC=C(C)S8)C9=NN(CC(CCCCCC)CCCCCCCC)N=C97)S6)S5,68.4,34.2,2,1,1,CB,NA,120,,,,