ID,Ref,year,PCE_max(%),PCE_ave(%),Jsc(mA/cm2),FF,Voc(V),Nickname(n),-HOMO_n(eV),-LUMO_n(eV),Eg_n(eV),n(SMILES),M (g/mol),Nickname(p),-HOMO_p(eV),-LUMO_p(eV),Eg_p(eV),p(SMILES),Mw (kg/mol),Mn(kg/mol),PDI,p/n ratio (p),p/n ratio (n),Solvent,Additive,TA (oC),thick (nm),,Journal,DOI
1,1,2018,6.93,6.86,16.35,0.5,0.865,DICTF-C10,5.67,3.89,1.76,O=c(c1=Cc2sc(c3ccc(c4c5cc(c6sc(C=c(c(=O)c7c8cccc7)c8=C(C#N)C#N)cc6)cc4)c(C5(CCCCCCCCCC)CCCCCCCCCC)c3)cc2)c(cccc9)c9c1=C(C#N)C#N,1019.38,PTB7,5.15,3.31,1.84,CC1=C(C(F)=C(C(OCC(CC)CCCC)=O)S2)C2=C(C3=CC4=C(OCC(CCCC)CC)C(SC(C)=C5)=C5C(OCC(CCCC)CC)=C4S3)S1,97.5,46.4,2.1,1,1.5,DCB,NA,NA,70,,ACS Appl. Energy Mater.,10.1021/acsaem.8b00012
2,1,2018,3.09,2.98,10.31,0.38,0.794,DICTF-TEG,5.68,3.92,1.76,O=c(c1=Cc2sc(c3ccc(c4c5cc(c6sc(C=c(c(=O)c7c8cccc7)c8=C(C#N)C#N)cc6)cc4)c(C5(COCCOCCOCC)COCCOCCOCC)c3)cc2)c(cccc9)c9c1=C(C#N)C#N,1031.21,PTB7,5.15,3.31,1.84,CC1=C(C(F)=C(C(OCC(CC)CCCC)=O)S2)C2=C(C3=CC4=C(OCC(CCCC)CC)C(SC(C)=C5)=C5C(OCC(CCCC)CC)=C4S3)S1,97.5,46.4,2.1,1,1.5,DCB,NA,NA,70,,ACS Appl. Energy Mater.,10.1021/acsaem.8b00012
3,2,2018,8.33,8.12,15.28,0.69,0.79,ITIC,5.54,3.84,1.7,CCCCCCC(C=C1)=CC=C1C2(C3=CC=C(CCCCCC)C=C3)C4=CC5=C(C(C6=C5SC7=C6SC(/C=C8C(C(C=CC=C9)=C9C\8=C(C#N)\C#N)=O)=C7)(C%10=CC=C(CCCCCC)C=C%10)C%11=CC=C(CCCCCC)C=C%11)C=C4C%12=C2C(SC(/C=C%13C(C(C=CC=C%14)=C%14C\%13=C(C#N)/C#N)=O)=C%15)=C%15S%12,1427.96,PBDTFBz,5.45,3.56,1.89,CC1=CC2=C(S1)C(C3=CC=C(CC(CC)CCCC)S3)=C4C(OC(C5=CC=C(C6=C(F)C(F)=C(C7=CC=C(C)S7)C8=NN(CC(CCCCCC)CCCCCCCC)N=C68)S5)=C4)=C2C9=CC=C(CC(CC)CCCC)S9,41.088,21.4,1.92,1,1.5,CB,NA,130,100,,ACS Appl. Energy Mater.,10.1021/acsaem.8b00574
4,3,2018,8.67,8.35,14,0.5788,1.07,O-IDTBR,5.51,3.88,1.63,O=C(/C(S1)=C/C(C2=NSN=C32)=CC=C3C(S4)=CC5=C4C6=CC(C(CCCCCCCC)(CCCCCCCC)C7=C8SC(C9=CC=C(/C=C%10SC(N(CC)C\%10=O)=S)C%11=NSN=C9%11)=C7)=C8C=C6C5(CCCCCCCC)CCCCCCCC)N(CC)C1=S,1326.02,PBDT-DFQX1,5.46,3.69,1.77,CC1=CC2=C(S1)C(C3=CC=C(SCCCCCCCC)S3)=C4C(OC(C5=CC=C(C6=C(F)C(F)=C(C7=CC=C(C)S7)C8=C6N=C(C9=CC=CC(OCCCCCCCC)=C9)C(C%10=CC(OCCCCCCCC)=CC=C%10)=N8)S5)=C4)=C2C%11=CC=C(SCCCCCCCC)S%11,42.804,16.4,2.61,1,1.5,CF,NA,100,100,,ACS Appl. Energy Mater.,10.1021/acsaem.8b00453
5,4,2018,8.46,8.33,13.95,0.6005,1.01,ITIC,5.48,3.83,1.65,CCCCCCC(C=C1)=CC=C1C2(C3=CC=C(CCCCCC)C=C3)C4=CC5=C(C(C6=C5SC7=C6SC(/C=C8C(C(C=CC=C9)=C9C\8=C(C#N)\C#N)=O)=C7)(C%10=CC=C(CCCCCC)C=C%10)C%11=CC=C(CCCCCC)C=C%11)C=C4C%12=C2C(SC(/C=C%13C(C(C=CC=C%14)=C%14C\%13=C(C#N)/C#N)=O)=C%15)=C%15S%12,1427.96,PBClT,5.47,3.61,1.86,O=C(C1=C(C2=C(SC(C3=CC4=C(S3)C(C5=CC(Cl)=C(S5)CC(CCCC)CC)=C6C=C(SC6=C4C7=CC(Cl)=C(S7)CC(CCCC)CC)C)=C2S1)C)F)OCC(CCCC)CC,87.52,43.9798995,1.99,1,1,CB,NA,NA,,,ACS Appl. Energy Mater.,10.1021/acsaem.8b00506
6,4,2018,6.91,6.8,14.76,0.5709,0.82,ITIC,5.48,3.83,1.65,CCCCCCC(C=C1)=CC=C1C2(C3=CC=C(CCCCCC)C=C3)C4=CC5=C(C(C6=C5SC7=C6SC(/C=C8C(C(C=CC=C9)=C9C\8=C(C#N)\C#N)=O)=C7)(C%10=CC=C(CCCCCC)C=C%10)C%11=CC=C(CCCCCC)C=C%11)C=C4C%12=C2C(SC(/C=C%13C(C(C=CC=C%14)=C%14C\%13=C(C#N)/C#N)=O)=C%15)=C%15S%12,1427.96,PTB7-Th,5.22,3.64,1.58,O=C(OCC(CC)CCCC)C1=C(F)C2=C(C)SC(C3=CC4=C(C(C5=CC=C(CC(CC)CCCC)S5)=C(C=C(C)S6)C6=C4C7=CC=C(CC(CC)CCCC)S7)S3)=C2S1,124,72.9,1.7,1,1,CB,NA,NA,90,,ACS Appl. Energy Mater.,10.1021/acsaem.8b00506
7,5,2018,0.7,0.7,2.7,0.43,0.646,PhO-Cl6BsubPc,5.9,3.8,2.1,ClC1=CC2=C(C=C1Cl)C3=NC4=[N]5C(C6=C4C=C(Cl)C(Cl)=C6)=NC7=C8C(C=C(Cl)C(Cl)=C8)=C9N7B5(OC%10=CC=CC=C%10)N3C2=N9,694.97,PTB1,5.2,3.61,1.59,CC1=CC2=C(C(OCCCCCCCC)=C(C=C(C3=C4C(C=C(C(OCCCCCCCCCCCC)=O)S4)=C(C)S3)S5)C5=C2OCCCCCCCC)S1,22.9,18.3,1.2,1,1,DCB,DMB,NA,154,,ACS Appl. Energy Mater.,10.1021/acsaem.8b00183
8,5,2018,2.6,2.6,7.1,0.4,0.911,PhO-Cl6BsubPc,5.9,3.8,2.1,ClC1=CC2=C(C=C1Cl)C3=NC4=[N]5C(C6=C4C=C(Cl)C(Cl)=C6)=NC7=C8C(C=C(Cl)C(Cl)=C8)=C9N7B5(OC%10=CC=CC=C%10)N3C2=N9,694.97,PTB7,5.2,3.6,1.6,CC1=C(C(F)=C(C(OCC(CC)CCCC)=O)S2)C2=C(C3=CC4=C(OCC(CCCC)CC)C(SC(C)=C5)=C5C(OCC(CCCC)CC)=C4S3)S1,97.5,46.4,2.1,1,1,DCB,DMB,120,213,,ACS Appl. Energy Mater.,10.1021/acsaem.8b00183
9,5,2018,3.8,3.8,10,0.42,0.905,PhO-Cl6BsubPc,5.9,3.8,2.1,ClC1=CC2=C(C=C1Cl)C3=NC4=[N]5C(C6=C4C=C(Cl)C(Cl)=C6)=NC7=C8C(C=C(Cl)C(Cl)=C8)=C9N7B5(OC%10=CC=CC=C%10)N3C2=N9,694.97,PTB7-Th,5.5,3.9,1.58,O=C(OCC(CC)CCCC)C1=C(F)C2=C(C)SC(C3=CC4=C(C(C5=CC=C(CC(CC)CCCC)S5)=C(C=C(C)S6)C6=C4C7=CC=C(CC(CC)CCCC)S7)S3)=C2S1,124,72.9,1.7,1,1,DCB,DMB,120,169,,ACS Appl. Energy Mater.,10.1021/acsaem.8b00183
10,5,2018,1.8,1.8,5.9,0.38,0.786,PhO-Cl6BsubPc,5.9,3.8,2.1,ClC1=CC2=C(C=C1Cl)C3=NC4=[N]5C(C6=C4C=C(Cl)C(Cl)=C6)=NC7=C8C(C=C(Cl)C(Cl)=C8)=C9N7B5(OC%10=CC=CC=C%10)N3C2=N9,694.97,PDTS-TzTz,5.4,3.6,1.82,CC1=CC2=C(C(SC(C3=CC(CCCCCCCCCCCCCC)=C(C4=NC(SC(C5=C(CCCCCCCCCCCCCC)C=C(C)S5)=N6)=C6S4)S3)=C7)=C7[Si]2(CC(CC)CCCC)CC(CC)CCCC)S1,50,25,2,1,1,OX,DMB,120,185,,ACS Appl. Energy Mater.,10.1021/acsaem.8b00183
11,5,2018,0.4,0.4,0.9,0.46,0.96,PhO-Cl6BsubPc,5.9,3.8,2.1,ClC1=CC2=C(C=C1Cl)C3=NC4=[N]5C(C6=C4C=C(Cl)C(Cl)=C6)=NC7=C8C(C=C(Cl)C(Cl)=C8)=C9N7B5(OC%10=CC=CC=C%10)N3C2=N9,694.97,PBDT-T-TPD,5.6,3.77,1.83,CC1=CC2=C(C(C3=CC=C(CC(CC)CCCC)S3)=C4C=C(SC4=C2C5=CC=C(CC(CC)CCCC)S5)C6=C7C(C(N(C7=O)CCCCCCCC)=O)=C(S6)C)S1,48,20,2.4,1,1,OX,DMB,120,22,,ACS Appl. Energy Mater.,10.1021/acsaem.8b00183
12,5,2018,1.5,1.5,4.2,0.57,0.639,PhO-Cl6BsubPc,5.9,3.8,2.1,ClC1=CC2=C(C=C1Cl)C3=NC4=[N]5C(C6=C4C=C(Cl)C(Cl)=C6)=NC7=C8C(C=C(Cl)C(Cl)=C8)=C9N7B5(OC%10=CC=CC=C%10)N3C2=N9,694.97,P3HT,5.2,3.3,1.91,CC1=CC(CCCCCC)=C(C)S1,21.1,11.6,1.82,1,1,DCB,DMB,120,147,,ACS Appl. Energy Mater.,10.1021/acsaem.8b00183
13,5,2018,1.2,1.2,3.4,0.39,0.924,PhO-Cl6BsubPc,5.9,3.8,2.1,ClC1=CC2=C(C=C1Cl)C3=NC4=[N]5C(C6=C4C=C(Cl)C(Cl)=C6)=NC7=C8C(C=C(Cl)C(Cl)=C8)=C9N7B5(OC%10=CC=CC=C%10)N3C2=N9,694.97,PBDB-T,5.2,3.44,1.76,CC(SC1=C2C3=CC=C(CC(CC)CCCC)S3)=CC1=C(C4=CC=C(CC(CC)CCCC)S4)C5=C2C=C(S5)C6=CC=C(C7=C8C(C(C9=C(CC(CC)CCCC)SC(CC(CC)CCCC)=C9C8=O)=O)=C(C%10=CC=C(C)S%10)S7)S6,117,58.5,2,1,1,DCB,DMB,120,236,,ACS Appl. Energy Mater.,10.1021/acsaem.8b00183
14,5,2018,0.5,0.5,1.5,0.33,0.96,PhO-Cl6BsubPc,5.9,3.8,2.1,ClC1=CC2=C(C=C1Cl)C3=NC4=[N]5C(C6=C4C=C(Cl)C(Cl)=C6)=NC7=C8C(C=C(Cl)C(Cl)=C8)=C9N7B5(OC%10=CC=CC=C%10)N3C2=N9,694.97,PCDTBT,5.6,3.75,1.85,CC1=CC(N(C(CCCCCCCC)CCCCCCCC)C2=C3C=CC(C4=CC=C(C5=CC=C(C6=CC=C(C)S6)C7=NSN=C57)S4)=C2)=C3C=C1,73,37,1.972972973,1,1,OX,DMB,120,41,,ACS Appl. Energy Mater.,10.1021/acsaem.8b00183
15,5,2018,1,1,3.7,0.35,0.801,PhO-Cl6BsubPc,5.9,3.8,2.1,ClC1=CC2=C(C=C1Cl)C3=NC4=[N]5C(C6=C4C=C(Cl)C(Cl)=C6)=NC7=C8C(C=C(Cl)C(Cl)=C8)=C9N7B5(OC%10=CC=CC=C%10)N3C2=N9,694.97,PSBTBT,4.9,3.42,1.48,CC1=CC([Si](CC(CCCC)CC)(CC(CC)CCCC)C2=C3SC(C4=CC=C(C)C5=NSN=C45)=C2)=C3S1,21.6,18,1.2,1,1,DCB,DMB,120,110,,ACS Appl. Energy Mater.,10.1021/acsaem.8b00183
16,6,2018,9.29,9.17,13.48,0.65,1.06,SMDPP,5.58,3.83,1.75,O=C(C1=C(N(CCCCCCCCCC)C(C1C2C3=CC=C(S3)C(/C(C4=CC=C(C=C4)N5C(C=CC=C6)=C6C7=C5C=CC=C7)=C(C#N)/C#N)=C(C#N)\C#N)=O)C8=CC=CS8)N2CCCCCCCCCC,976.32,P(BdP-EHT),5.45,3.69,1.76,CC(C1C(C2=C(C(C#CC)=C(N2[B-](F)([N]1=C3C)F)C)C)C4=C(C=C(C=C4C)C)C)=C3C#CC5=CC(CC(CC)CCCC)=C(C)S5,12.8,6,2.1,1,1,CB,NA,NA,,,ACS Appl. Energy Mater.,10.1021/acsaem.8b00535
17,7,2018,5.3,5.3,12.48,0.431,0.98,PDI-DPP-PDI,5.3,3.7,1.6,CCCCCCCCN(C1=O)C(C2=CC=C(C3=C(C4=CC=C(C5=O)C6C4=C7C8=CC6C(N5C(CC)CC)=O)C(C7=C(N8CCCCCC)C=C9C(N(C(CC)CC)C%10=O)=O)=C9C%10=C3)S2)=C%11C1=C(C%12=CC=C(C%13=C(C%14=C%15C%16=CC%17C%14C(C(N(C(CC)CC)C%17=O)=O)=C%13)C%18=CC=C%19C%20=C%18C%15=C(N%16CCCCCC)C=C%20C(N(C(CC)CC)C%19=O)=O)S%12)N(CCCCCCCC)C%11=O,1780.35,PTB7-Th,5.22,3.64,1.58,O=C(OCC(CC)CCCC)C1=C(F)C2=C(C)SC(C3=CC4=C(C(C5=CC=C(CC(CC)CCCC)S5)=C(C=C(C)S6)C6=C4C7=CC=C(CC(CC)CCCC)S7)S3)=C2S1,124,72.9,1.7,1,1.5,CF,NA,NA,,,ACS Appl. Energy Mater.,10.1021/acsaem.8b00929
18,7,2018,1.1,1.1,3.78,0.313,0.95,PDI-DPP-BTXI,5.3,3.7,1.6,CCCCCCCCN(C1=O)C(C2=CC=C(C3=C(C4=CC=C(C5=O)C6C4=C7C8=CC6C(N5C(CC)CC)=O)C(C7=C(N8CCCCCC)C=C9C(N(C(CC)CC)C%10=O)=O)=C9C%10=C3)S2)=C%11C1=C(C%12=CC=C(C(C=C%13C(N(C(CC)CC)C%14=O)=O)=C%15C%16=C%13C%14=CC=C%16C(C=CC=C%17)=C%17S%15)S%12)N(CCCCCCCC)C%11=O,1524.02,PTB7-Th,5.22,3.64,1.58,O=C(OCC(CC)CCCC)C1=C(F)C2=C(C)SC(C3=CC4=C(C(C5=CC=C(CC(CC)CCCC)S5)=C(C=C(C)S6)C6=C4C7=CC=C(CC(CC)CCCC)S7)S3)=C2S1,124,72.9,1.7,1,1.5,CF,NA,NA,,,ACS Appl. Energy Mater.,10.1021/acsaem.8b00929
19,7,2018,0.2,0.2,0.7,0.239,1.08,BTXI-DPP-BTXI,5.2,3.3,1.9,CCCCCCCCN(C1=O)C(C2=CC=C(C(C=C3C(N(C(CC)CC)C4=O)=O)=C5C6=C3C4=CC=C6C(C=CC=C7)=C7S5)S2)=C8C1=C(C9=CC=C(C(C=C%10C(N(C(CC)CC)C%11=O)=O)=C%12C%13=C%10C%11=CC=C%13C(C=CC=C%14)=C%14S%12)S9)N(CCCCCCCC)C8=O,1267.69,PTB7-Th,5.22,3.64,1.58,O=C(OCC(CC)CCCC)C1=C(F)C2=C(C)SC(C3=CC4=C(C(C5=CC=C(CC(CC)CCCC)S5)=C(C=C(C)S6)C6=C4C7=CC=C(CC(CC)CCCC)S7)S3)=C2S1,124,72.9,1.7,1,0.67,CF,NA,NA,,,ACS Appl. Energy Mater.,10.1021/acsaem.8b00929
20,8,2016,4.1,3.88,8.46,0.552,0.84,Bis-PDI-EG,5.64,3.84,1.8,O=C(N(CC(CC)CCCCC)C1=O)C2=CC(C(S3)=CC=C3C4=C(C5=C6C=CC7C5C(C(N(CC(CC)CCCCC)C7=O)=O)=C4)C8=CC=C9C%10=C8C6=C(OCCOC)C=C%10C(N(CC(CC)CCCC)C9=O)=O)=C(C%11=C%12C=CC1C%112)C%13=CC=C%14C%15=C%13C%12=C(OCCOC)C=C%15C(N(CC(CC)CCCC)C%14=O)=O,1489.92,PTB7,5.02,3.39,1.63,CC1=C(C(F)=C(C(OCC(CC)CCCC)=O)S2)C2=C(C3=CC4=C(OCC(CCCC)CC)C(SC(C)=C5)=C5C(OCC(CCCC)CC)=C4S3)S1,97.5,46.4,2.1,1,1.5,DCB,DIO,NA,100,,ACS Appl. Mater. Interfaces,10.1021/acsami.6b03926
21,8,2016,5.87,5.65,11.14,0.583,0.876,Bis-PDI-EG,5.64,3.84,1.8,O=C(N(CC(CC)CCCCC)C1=O)C2=CC(C(S3)=CC=C3C4=C(C5=C6C=CC7C5C(C(N(CC(CC)CCCCC)C7=O)=O)=C4)C8=CC=C9C%10=C8C6=C(OCCOC)C=C%10C(N(CC(CC)CCCC)C9=O)=O)=C(C%11=C%12C=CC1C%112)C%13=CC=C%14C%15=C%13C%12=C(OCCOC)C=C%15C(N(CC(CC)CCCC)C%14=O)=O,1489.92,PTB7-Th,5.17,3.59,1.58,O=C(OCC(CC)CCCC)C1=C(F)C2=C(C)SC(C3=CC4=C(C(C5=CC=C(CC(CC)CCCC)S5)=C(C=C(C)S6)C6=C4C7=CC=C(CC(CC)CCCC)S7)S3)=C2S1,124,72.9,1.7,1,1.5,DCB,DIO,NA,100,,ACS Appl. Mater. Interfaces,10.1021/acsami.6b03926
22,8,2016,7.24,6.94,13.23,0.594,0.887,Bis-PDI-EG,5.64,3.84,1.8,O=C(N(CC(CC)CCCCC)C1=O)C2=CC(C(S3)=CC=C3C4=C(C5=C6C=CC7C5C(C(N(CC(CC)CCCCC)C7=O)=O)=C4)C8=CC=C9C%10=C8C6=C(OCCOC)C=C%10C(N(CC(CC)CCCC)C9=O)=O)=C(C%11=C%12C=CC1C%112)C%13=CC=C%14C%15=C%13C%12=C(OCCOC)C=C%15C(N(CC(CC)CCCC)C%14=O)=O,1489.92,PBDT-TS1,5.26,3.71,1.55,O=C(C1=C(C2=C(SC(C3=CC4=C(S3)C(C5=CC=C(S5)SCCCCCCCC)=C6C=C(SC6=C4C7=CC=C(S7)SCCCCCCCC)C)=C2S1)C)F)OCC(CCCC)CC,50,25,2,1,1.5,DCB,DIO,NA,100,,ACS Appl. Mater. Interfaces,10.1021/acsami.6b03926
23,9,2016,3.55,3.55,7.57,0.559,0.84,PDI,5.9,3.8,2.1,O=C(N(C(CC)CC)C1=O)C2=CC=C(C3=C4C=CC1C32)C5=CC=C6C7=C5C4=CC=C7C(N(C(CC)CC)C6=O)=O,532.64,PTB7,5.02,3.39,1.63,CC1=C(C(F)=C(C(OCC(CC)CCCC)=O)S2)C2=C(C3=CC4=C(OCC(CCCC)CC)C(SC(C)=C5)=C5C(OCC(CCCC)CC)=C4S3)S1,97.5,46.4,2.1,3,7,CF,DIO,NA,100,,ACS Appl. Mater. Interfaces,10.1021/acsami.6b08284
24,10,2017,3.63,3.2,8.51,0.47,0.91,IDT(DCV)2,5.81,3.65,2.16,CCCCCCC(C=C1)=CC=C1C2(C3=CC=C(CCCCCC)C=C3)C4=CC5=C(C(C6=C5SC(/C=C(C#N)\C#N)=C6)(C7=CC=C(CCCCCC)C=C7)C8=CC=C(CCCCCC)C=C8)C=C4C9=C2C=C(/C=C(C#N)/C#N)S9,1059.53,PTB7-Th,5.17,3.59,1.58,O=C(OCC(CC)CCCC)C1=C(F)C2=C(C)SC(C3=CC4=C(C(C5=CC=C(CC(CC)CCCC)S5)=C(C=C(C)S6)C6=C4C7=CC=C(CC(CC)CCCC)S7)S3)=C2S1,124,72.9,1.7,1,1.2,DCB,NA,NA,,,ACS Appl. Mater. Interfaces,10.1021/acsami.6b15707
25,10,2017,2.84,2.61,11.02,0.53,0.49,IDT(TCV)2,6.04,4.18,1.86,CCCCCCC(C=C1)=CC=C1C2(C3=CC=C(CCCCCC)C=C3)C4=CC5=C(C(C6=C5SC(/C(C#N)=C(C#N)\C#N)=C6)(C7=CC=C(CCCCCC)C=C7)C8=CC=C(CCCCCC)C=C8)C=C4C9=C2C=C(/C(C#N)=C(C#N)/C#N)S9,1109.55,PTB7-Th,5.17,3.59,1.58,O=C(OCC(CC)CCCC)C1=C(F)C2=C(C)SC(C3=CC4=C(C(C5=CC=C(CC(CC)CCCC)S5)=C(C=C(C)S6)C6=C4C7=CC=C(CC(CC)CCCC)S7)S3)=C2S1,124,72.9,1.7,1,1.5,CB,NA,NA,,,ACS Appl. Mater. Interfaces,10.1021/acsami.6b15707
26,10,2017,3.57,3.42,11.98,0.5,0.6,IDTT(TCV)2,5.58,4.06,1.52,CCCCCCC(C=C1)=CC=C1C2(C3=CC=C(CCCCCC)C=C3)C4=CC5=C(C(C6=C5SC(C7=CC=C(/C(C#N)=C(C#N)\C#N)S7)=C6)(C8=CC=C(CCCCCC)C=C8)C9=CC=C(CCCCCC)C=C9)C=C4C%10=C2C=C(C%11=CC=C(/C(C#N)=C(C#N)/C#N)S%11)S%10,1273.79,PTB7-Th,5.17,3.59,1.58,O=C(OCC(CC)CCCC)C1=C(F)C2=C(C)SC(C3=CC4=C(C(C5=CC=C(CC(CC)CCCC)S5)=C(C=C(C)S6)C6=C4C7=CC=C(CC(CC)CCCC)S7)S3)=C2S1,124,72.9,1.7,1,1.5,DCB,NA,NA,,,ACS Appl. Mater. Interfaces,10.1021/acsami.6b15707
27,11,2017,3.6,3.6,9.1,0.45,0.88,NAI-FN-NAI (BO),6.07,3.94,2.13,O=C1C2=C(C=CC(C3=CC=C(C4=C(C=CC=C5C(N(CCC(CCCC)CCCCCC)C6=O)=O)C5=C6C=C4)S3)=C2)C7=CC=C(C8=CC=C(C9=C(C=CC=C%10C(N(CCC(CCCC)CCCCCC)C%11=O)=O)C%10=C%11C=C9)S8)C=C71,1099.5,P3HT,5.2,3.2,2,CC1=CC(CCCCCC)=C(C)S1,21.1,11.6,1.82,1,1,CB,NA,NA,95,,ACS Appl. Mater. Interfaces,10.1021/acsami.6b16395
28,11,2017,2.5,2.5,7.2,0.41,0.86,NAI-FN-NAI (HD),6.06,3.98,2.08,O=C1C2=C(C=CC(C3=CC=C(C4=C(C=CC=C5C(N(CCC(CCCCCC)CCCCCCCC)C6=O)=O)C5=C6C=C4)S3)=C2)C7=CC=C(C8=CC=C(C9=C(C=CC=C%10C(N(CCC(CCCCCC)CCCCCCCC)C%11=O)=O)C%10=C%11C=C9)S8)C=C71,1211.72,P3HT,5.2,3.2,2,CC1=CC(CCCCCC)=C(C)S1,21.1,11.6,1.82,1,1,CB,NA,NA,95,,ACS Appl. Mater. Interfaces,10.1021/acsami.6b16395
29,11,2017,0.6,0.6,3,0.36,0.56,NAI-FCN-NAI (BO),6.14,4.21,1.93,O=C(N(CCC(CCCC)CCCCCC)C1=O)C2=CC=CC(C2=C1C=C3)=C3C(S4)=CC=C4C5=CC6=C(C=C5)C7=CC=C(C8=CC=C(C9=C(C=CC=C%10C(N(CCC(CCCC)CCCCCC)C%11=O)=O)C%10=C%11C=C9)S8)C=C7/C6=C(C#N)/C#N,1147.55,P3HT,5.2,3.2,2,CC1=CC(CCCCCC)=C(C)S1,21.1,11.6,1.82,1,1,CB,NA,NA,95,,ACS Appl. Mater. Interfaces,10.1021/acsami.6b16395
30,12,2017,8,7.82,13.94,0.5978,0.94,ITDI,5.89,4.18,1.71,O=C(C(C=CC=C1)=C1C/2=C(C#N)\C#N)C2=C/C3=CC=C(C4=CC=C(C5=CC=C(C(SC(C6=CC=C(/C=C7C(C(C=CC=C8)=C8C\7=C(C#N)/C#N)=O)S6)=C9)=C9C%10(CC(CC)CCCC)CC(CC)CCCC)C%10=C5)S4)S3,1051.41,PBDB-T,5.41,3.57,1.84,CC(SC1=C2C3=CC=C(CC(CC)CCCC)S3)=CC1=C(C4=CC=C(CC(CC)CCCC)S4)C5=C2C=C(S5)C6=CC=C(C7=C8C(C(C9=C(CC(CC)CCCC)SC(CC(CC)CCCC)=C9C8=O)=O)=C(C%10=CC=C(C)S%10)S7)S6,117,58.5,2,1,1,CB,DPE,120,,,ACS Appl. Mater. Interfaces,10.1021/acsami.7b05417
31,12,2017,2.75,2.54,7.89,0.3736,0.86,CDTDI,5.75,4.26,1.49,O=C(C(C=CC=C1)=C1C/2=C(C#N)\C#N)C2=C/C3=CC=C(C(S4)=CC5=C4C(SC(C6=CC=C(/C=C7C(C(C=CC=C8)=C8C\7=C(C#N)/C#N)=O)S6)=C9)=C9C(CC(CC)CCCC)5CC(CC)CCCC)S3,975.32,PBDB-T,5.41,3.57,1.84,CC(SC1=C2C3=CC=C(CC(CC)CCCC)S3)=CC1=C(C4=CC=C(CC(CC)CCCC)S4)C5=C2C=C(S5)C6=CC=C(C7=C8C(C(C9=C(CC(CC)CCCC)SC(CC(CC)CCCC)=C9C8=O)=O)=C(C%10=CC=C(C)S%10)S7)S6,117,58.5,2,1,1,CB,DPE,120,,,ACS Appl. Mater. Interfaces,10.1021/acsami.7b05417
32,13,2017,9.33,9.33,16.56,0.6552,0.86,BDCPDT-IC,5.41,3.87,1.54,O=C(C(C=CC=C1)=C1C/2=C(C#N)/C#N)C2=C/C3=CC(C4(C5=CC=C(CCCCCC)C=C5)C6=CC=C(CCCCCC)C=C6)=C(S3)C7=C4C(C=C(SC8=C9C(C%10=CC=C(CCCCCC)C=C%10)(C%11=CC=C(CCCCCC)C=C%11)C%12=C8SC(C=C%13C(C(C=CC=C%14)=C%14/C%13=C(C#N)/C#N)=O)=C%12)C9=C%15)=C%15S7,1427.96,PBDB-T,5.41,3.57,1.84,CC(SC1=C2C3=CC=C(CC(CC)CCCC)S3)=CC1=C(C4=CC=C(CC(CC)CCCC)S4)C5=C2C=C(S5)C6=CC=C(C7=C8C(C(C9=C(CC(CC)CCCC)SC(CC(CC)CCCC)=C9C8=O)=O)=C(C%10=CC=C(C)S%10)S7)S6,117,58.5,2,1,1,CB,NA,150,,,ACS Appl. Mater. Interfaces,10.1021/acsami.7b06650
33,14,2017,7.51,7.43,14.09,0.553,0.96,ITIC,5.64,3.94,1.7,CCCCCCC(C=C1)=CC=C1C2(C3=CC=C(CCCCCC)C=C3)C4=CC5=C(C(C6=C5SC7=C6SC(/C=C8C(C(C=CC=C9)=C9C\8=C(C#N)\C#N)=O)=C7)(C%10=CC=C(CCCCCC)C=C%10)C%11=CC=C(CCCCCC)C=C%11)C=C4C%12=C2C(SC(/C=C%13C(C(C=CC=C%14)=C%14C\%13=C(C#N)/C#N)=O)=C%15)=C%15S%12,1427.96,PBDTSi-TA,5.54,2.97,2.57,CC1=CC2=C(S1)C(C3=CC=C(C#C[Si](C(C)C)(C(C)C)C(C)C)S3)=C4C(OC(C5=CC=C(C6=C(F)C(F)=C(C7=CC=C(C)S7)C8=NN(CC(CCCCCC)CCCCCCCC)N=C68)S5)=C4)=C2C9=CC=C(C#C[Si](C(C)C)(C(C)C)C(C)C)S9,58.56,48.8,1.2,1,1.2,CB,NA,NA,70,,ACS Appl. Mater. Interfaces,10.1021/acsami.7b09253
34,14,2017,4.38,4.28,9.47,0.509,0.91,ITIC,5.64,3.94,1.7,CCCCCCC(C=C1)=CC=C1C2(C3=CC=C(CCCCCC)C=C3)C4=CC5=C(C(C6=C5SC7=C6SC(/C=C8C(C(C=CC=C9)=C9C\8=C(C#N)\C#N)=O)=C7)(C%10=CC=C(CCCCCC)C=C%10)C%11=CC=C(CCCCCC)C=C%11)C=C4C%12=C2C(SC(/C=C%13C(C(C=CC=C%14)=C%14C\%13=C(C#N)/C#N)=O)=C%15)=C%15S%12,1427.96,PBDTSi-Qx,5.42,2.95,2.47,CC1=CC2=C(S1)C(C3=CC=C(C#C[Si](C(C)C)(C(C)C)C(C)C)S3)=C4C(OC(C5=CC=C(C6=CC=C(C7=CC=C(C)S7)C8=C6N=C(C9=CC=CC(OCCCCCCCC)=C9)C(C%10=CC(OCCCCCCCC)=CC=C%10)=N8)S5)=C4)=C2C%11=CC=C(C#C[Si](C(C)C)(C(C)C)C(C)C)S%11,66.42,49.2,1.35,1,1,CB,NA,NA,90,,ACS Appl. Mater. Interfaces,10.1021/acsami.7b09253
35,15,2017,10.2,9.8,15.4,0.68,0.97,ITIC,5.58,4.02,1.56,CCCCCCC(C=C1)=CC=C1C2(C3=CC=C(CCCCCC)C=C3)C4=CC5=C(C(C6=C5SC7=C6SC(/C=C8C(C(C=CC=C9)=C9C\8=C(C#N)\C#N)=O)=C7)(C%10=CC=C(CCCCCC)C=C%10)C%11=CC=C(CCCCCC)C=C%11)C=C4C%12=C2C(SC(/C=C%13C(C(C=CC=C%14)=C%14C\%13=C(C#N)/C#N)=O)=C%15)=C%15S%12,1427.96,PBDTTPD-HT,5.36,3.48,1.88,CC(SC1=C2C3=CC=C(CC(CC)CCCC)S3)=CC1=C(C4=CC=C(CC(CC)CCCC)S4)C5=C2C=C(S5)C6=C(CCCCCC)C=C(C7=C8C(C(N(CCCCCCCC)C8=O)=O)=C(C9=CC(CCCCCC)=C(C)S9)S7)S6,350,129.6296296,2.7,1,1.4,CB,DIO,NA,110,,ACS Appl. Mater. Interfaces,10.1021/acsami.7b09757
36,16,2017,7.17,7.17,13.87,0.58,0.9,ITIC-SC6,5.68,3.91,1.77,O=C(C(C=CC=C1)=C1C/2=C(C#N)\C#N)C2=C/C3=CC(S4)=C(S3)C5=C4C6=CC(C(C7=C8SC9=C7SC(/C=C%10C(C(C=CC=C%11)=C%11C\%10=C(C#N)\C#N)=O)=C9)(C%12=CC=C(SCCCCCC)C=C%12)C%13=CC=C(SCCCCCC)C=C%13)=C8C=C6C(C%14=CC=C(SCCCCCC)C=C%14)5C%15=CC=C(SCCCCCC)C=C%15,1556.2,PBDB-ST,5.37,3.59,1.78,CC(SC1=C2C3=CC=C(SCC(CC)CCCC)S3)=CC1=C(C4=CC=C(SCC(CC)CCCC)S4)C5=C2C=C(S5)C6=CC=C(C7=C8C(C(C9=C(CC(CC)CCCC)SC(CC(CC)CCCC)=C9C8=O)=O)=C(C%10=CC=C(C)S%10)S7)S6,50,25,2,1,1,DCB,CBA,NA,80,,ACS Appl. Mater. Interfaces,10.1021/acsami.7b09915
37,16,2017,7.49,7.49,14.43,0.6,0.9,ITIC-SC8,5.7,3.9,1.8,O=C(C(C=CC=C1)=C1C/2=C(C#N)\C#N)C2=C/C3=CC(S4)=C(S3)C5=C4C6=CC(C(C7=C8SC9=C7SC(/C=C%10C(C(C=CC=C%11)=C%11C\%10=C(C#N)\C#N)=O)=C9)(C%12=CC=C(SCCCCCCCC)C=C%12)C%13=CC=C(SCCCCCCCC)C=C%13)=C8C=C6C(C%14=CC=C(SCCCCCCCC)C=C%14)5C%15=CC=C(SCCCCCCCC)C=C%15,1668.41,PBDB-ST,5.37,3.59,1.78,CC(SC1=C2C3=CC=C(SCC(CC)CCCC)S3)=CC1=C(C4=CC=C(SCC(CC)CCCC)S4)C5=C2C=C(S5)C6=CC=C(C7=C8C(C(C9=C(CC(CC)CCCC)SC(CC(CC)CCCC)=C9C8=O)=O)=C(C%10=CC=C(C)S%10)S7)S6,50,25,2,1,1,DCB,CBA,NA,80,,ACS Appl. Mater. Interfaces,10.1021/acsami.7b09915
38,16,2017,8.94,8.94,15.32,0.64,0.92,ITIC-SC2C6,5.74,3.86,1.88,O=C(C(C=CC=C1)=C1C/2=C(C#N)\C#N)C2=C/C3=CC(S4)=C(S3)C5=C4C6=CC(C(C7=C8SC9=C7SC(/C=C%10C(C(C=CC=C%11)=C%11C\%10=C(C#N)\C#N)=O)=C9)(C%12=CC=C(SCC(CC)CCCC)C=C%12)C%13=CC=C(SCC(CC)CCCC)C=C%13)=C8C=C6C(C%14=CC=C(SCC(CC)CCCC)C=C%14)5C%15=CC=C(SCC(CC)CCCC)C=C%15,1668.41,PBDB-ST,5.37,3.59,1.78,CC(SC1=C2C3=CC=C(SCC(CC)CCCC)S3)=CC1=C(C4=CC=C(SCC(CC)CCCC)S4)C5=C2C=C(S5)C6=CC=C(C7=C8C(C(C9=C(CC(CC)CCCC)SC(CC(CC)CCCC)=C9C8=O)=O)=C(C%10=CC=C(C)S%10)S7)S6,50,25,2,1,1,DCB,CBA,NA,80,,ACS Appl. Mater. Interfaces,10.1021/acsami.7b09915
39,17,2017,7.06,6.85,10.7,0.664,1,ITIC,5.51,3.84,1.67,CCCCCCC(C=C1)=CC=C1C2(C3=CC=C(CCCCCC)C=C3)C4=CC5=C(C(C6=C5SC7=C6SC(/C=C8C(C(C=CC=C9)=C9C\8=C(C#N)\C#N)=O)=C7)(C%10=CC=C(CCCCCC)C=C%10)C%11=CC=C(CCCCCC)C=C%11)C=C4C%12=C2C(SC(/C=C%13C(C(C=CC=C%14)=C%14C\%13=C(C#N)/C#N)=O)=C%15)=C%15S%12,1427.96,PBODT,5.44,3.48,1.96,CC1=CC=C(S1)C2=CC=C(S2)C3=C(CC(CCCCCCCCCC)CCCCCCCCCCCC)C=C(C4=CC5=C(S4)C6=C(C=C(S6)C7=CC(CC(CCCCCCCCCC)CCCCCCCCCCCC)=C(S7)C)C8=NON=C58)S3,122.813,64.3,1.91,1,1,CB/DCB,NA,NA,100,,ACS Appl. Mater. Interfaces,10.1021/acsami.7b10059
40,17,2017,8.19,7.95,13.3,0.668,0.92,IDIC,5.69,3.98,1.71,O=C(C(C=CC=C1)=C1C/2=C(C#N)\C#N)C2=C/C(S3)=CC4=C3C5=C(C4(CCCCCC)CCCCCC)C=C6C(C(CCCCCC)(CCCCCC)C7=C6SC(/C=C8C(C(C=CC=C9)=C9C\8=C(C#N)/C#N)=O)=C7)=C5,1011.4,PBODT,5.44,3.48,1.96,CC1=CC=C(S1)C2=CC=C(S2)C3=C(CC(CCCCCCCCCC)CCCCCCCCCCCC)C=C(C4=CC5=C(S4)C6=C(C=C(S6)C7=CC(CC(CCCCCCCCCC)CCCCCCCCCCCC)=C(S7)C)C8=NON=C58)S3,122.813,64.3,1.91,1,1,CB,NA,NA,100,,ACS Appl. Mater. Interfaces,10.1021/acsami.7b10059
41,18,2017,9.48,9.25,14.27,0.6782,0.97,DTCCIC-C17,5.46,3.65,1.81,CCCCCCC(C=C1)=CC=C1C(C2=C3SC(/C=C4C(C(C=CC=C5)=C5C/4=C(C#N)/C#N)=O)=C2)(C6=CC=C(CCCCCCCC)C=C6)C7=C3C=C(N(C(CCCCCCCC)CCCCCCCC)C8=CC9=C(C(C%10=C9SC(/C=C%11C(C(C=CC=C%12)=C%12C/%11=C(C#N)/C#N)=O)=C%10)(C%13=CC=C(CCCCCC)C=C%13)C%14=CC=C(CCCCCCCC)C=C%14)C=C%158)C%15=C7,1699.46,PBDB-T,5.33,2.92,2.41,CC(SC1=C2C3=CC=C(CC(CC)CCCC)S3)=CC1=C(C4=CC=C(CC(CC)CCCC)S4)C5=C2C=C(S5)C6=CC=C(C7=C8C(C(C9=C(CC(CC)CCCC)SC(CC(CC)CCCC)=C9C8=O)=O)=C(C%10=CC=C(C)S%10)S7)S6,117,58.5,2,1,1.5,CB,DIO,50,150,,ACS Appl. Mater. Interfaces,10.1021/acsami.7b12612