ID,Ref,year,PCE_max(%),PCE_ave(%),Jsc(mA/cm2),FF,Voc(V),Nickname(n),-HOMO_n(eV),-LUMO_n(eV),Eg_n(eV),n(SMILES),M (g/mol),Nickname(p),-HOMO_p(eV),-LUMO_p(eV),Eg_p(eV),p(SMILES),Mw (kg/mol),Mn(kg/mol),PDI,p/n ratio (p),p/n ratio (n),Solvent,Additive,TA (oC),thick (nm),,Journal,DOI
223,94,2016,6.43,6.39,11.7,0.594,0.919,ITIC-Th,5.66,3.93,1.73,O=C(C(C=CC=C1)=C1C/2=C(C#N)\C#N)C2=C/C3=CC(S4)=C(S3)C5=C4C6=CC(C(C7=C8SC9=C7SC(/C=C%10C(C(C=CC=C%11)=C%11C\%10=C(C#N)\C#N)=O)=C9)(C%12=CC=C(CCCCCC)S%12)C%13=CC=C(CCCCCC)S%13)=C8C=C6C(C%14=CSC(CCCCCC)=C%14)5C%15=CC=C(CCCCCC)S%15,1452.04,PDBT-T1,5.36,3.43,1.93,CC1=CC=C(C(S2)=C3C(C(C4=C(CC(CCCC)CC)SC(CC(CCCC)CC)=C4C3=O)=O)=C2C5=CC=C(C6=CC7=C(C8=C(C9=CC=C(CCCCCCCC)S9)C(SC%10=C%11SC(C)=C%10)=C%11C(C%12=CC=C(CCCCCCCC)S%12)=C8S7)S6)S5)S1,342,195.4285714,1.75,1,1,DCB,DIO,NA,110,,Adv. Mater.,10.1002/adma.201602570
224,95,2017,5.93,5.65,10.3,0.59,0.93,DICTF,5.67,3.79,1.88,O=C(C(C=CC=C1)=C1C/2=C(C#N)/C#N)C2=C/C3=CC=C(C4=CC=C5C(C(CCCCCCCC)(CCCCCCCC)C6=C5C=CC(C7=CC=C(/C=C8/C(C9=C(C8=O)C=CC=C9)=C(C#N)/C#N)S7)=C6)=C4)S3,963.27,PBDB-T,5.33,3.53,1.8,CC(SC1=C2C3=CC=C(CC(CC)CCCC)S3)=CC1=C(C4=CC=C(CC(CC)CCCC)S4)C5=C2C=C(S5)C6=CC=C(C7=C8C(C(C9=C(CC(CC)CCCC)SC(CC(CC)CCCC)=C9C8=O)=O)=C(C%10=CC=C(C)S%10)S7)S6,117,58.5,2,1,1.2,CB,DIO,NA,,,Adv. Mater.,10.1002/adma.201604964
225,95,2017,10.06,9.81,15.81,0.66,0.94,FDICTF,5.43,3.71,1.72,O=C(C(C=CC=C1)=C1C/2=C(C#N)/C#N)C2=C/C3=CC(C4(CCCCCCCC)CCCCCCCC)=C(S3)C(C4=C5)=CC6=C5C7=CC(C(C8=C9SC(/C=C%10/C(C%11=C(C%10=O)C=CC=C%11)=C(C#N)/C#N)=C8)(CCCCCCCC)CCCCCCCC)=C9C=C7C6(CCCCCCCC)CCCCCCCC,1436.16,PBDB-T,5.33,3.53,1.8,CC(SC1=C2C3=CC=C(CC(CC)CCCC)S3)=CC1=C(C4=CC=C(CC(CC)CCCC)S4)C5=C2C=C(S5)C6=CC=C(C7=C8C(C(C9=C(CC(CC)CCCC)SC(CC(CC)CCCC)=C9C8=O)=O)=C(C%10=CC=C(C)S%10)S7)S6,117,58.5,2,1,1.2,CB,DIO,NA,,,Adv. Mater.,10.1002/adma.201604964
226,96,2017,9.43,9.32,16.84,0.6153,0.91,ITIC,5.51,3.78,1.73,CCCCCCC(C=C1)=CC=C1C2(C3=CC=C(CCCCCC)C=C3)C4=CC5=C(C(C6=C5SC7=C6SC(/C=C8C(C(C=CC=C9)=C9C\8=C(C#N)\C#N)=O)=C7)(C%10=CC=C(CCCCCC)C=C%10)C%11=CC=C(CCCCCC)C=C%11)C=C4C%12=C2C(SC(/C=C%13C(C(C=CC=C%14)=C%14C\%13=C(C#N)/C#N)=O)=C%15)=C%15S%12,1427.96,PTzBI,5.34,3.46,1.88,CC(SC1=C2C3=CC=C(CC(CC)CCCC)S3)=CC1=C(C4=CC=C(CC(CC)CCCC)S4)C5=C2C=C(S5)C6=CC=C(C(C7=NN(CCCCCCCC)N=C78)=C(C(C(N9CCCCCCCC)=O)=C8C%10=CC=C(C)S%10)C9=O)S6,145.44,90.9,1.6,1,1,DCB,NA,NA,,,Adv. Mater.,10.1002/adma.201606396
227,96,2017,10.24,10.13,18.29,0.6434,0.87,ITIC,5.51,3.78,1.73,CCCCCCC(C=C1)=CC=C1C2(C3=CC=C(CCCCCC)C=C3)C4=CC5=C(C(C6=C5SC7=C6SC(/C=C8C(C(C=CC=C9)=C9C\8=C(C#N)\C#N)=O)=C7)(C%10=CC=C(CCCCCC)C=C%10)C%11=CC=C(CCCCCC)C=C%11)C=C4C%12=C2C(SC(/C=C%13C(C(C=CC=C%14)=C%14C\%13=C(C#N)/C#N)=O)=C%15)=C%15S%12,1427.96,PTzBI-DT,5.39,3.51,1.88,CC1=CC=C(C2=C(C3=C(C4=NN(CCCCCCCC)N=C42)C5=CC=C(C6=CC7=C(S6)C8=C(C(C9=CC=C(CC(CC)CCCC)S9)=C%10C(SC(C)=C%11)=C%11SC%10=C8C%12=CC=C(CC(CC)CCCC)S%12)S7)S5)C(N(CCCCCCCC)C3=O)=O)S1,145.44,90.9,1.6,1,1,CB,DBE/DIO,NA,,,Adv. Mater.,10.1002/adma.201606396
228,97,2017,8.88,8.67,15.84,0.6126,0.915,ITIC-Th,5.66,3.93,1.73,O=C(C(C=CC=C1)=C1C/2=C(C#N)\C#N)C2=C/C3=CC(S4)=C(S3)C5=C4C6=CC(C(C7=C8SC9=C7SC(/C=C%10C(C(C=CC=C%11)=C%11C\%10=C(C#N)\C#N)=O)=C9)(C%12=CC=C(CCCCCC)S%12)C%13=CC=C(CCCCCC)S%13)=C8C=C6C(C%14=CSC(CCCCCC)=C%14)5C%15=CC=C(CCCCCC)S%15,1452.04,FTAZ,5.38,3.17,2.21,CC1=CC2=C(S1)C(CCC(CCCC)CCCCCC)=C3C=C(SC3=C2CCC(CCCC)CCCCCC)C4=CC=C(S4)C5=C(C(F)=C(C6=NN(N=C65)CC(CCCC)CCCCCC)C7=CC=C(S7)C)F,99.592,42.2,2.36,1,1.5,CF,DIO,NA,100,,Adv. Mater.,10.1002/adma.201700144
229,97,2017,12.1,11.9,19.33,0.7373,0.849,ITIC-Th1,5.74,4.01,1.73,O=C(C(C=C(F)C(F)=C1)=C1C/2=C(C#N)\C#N)C2=C/C3=CC(S4)=C(S3)C5=C4C6=CC(C(C7=C8SC9=C7SC(/C=C%10C(C(C=C(F)C(F)=C%11)=C%11C\%10=C(C#N)\C#N)=O)=C9)(C%12=CC=C(CCCCCC)S%12)C%13=CC=C(CCCCCC)S%13)=C8C=C6C(C%14=CSC(CCCCCC)=C%14)5C%15=CC=C(CCCCCC)S%15,1524.01,FTAZ,5.38,3.17,2.21,CC1=CC2=C(S1)C(CCC(CCCC)CCCCCC)=C3C=C(SC3=C2CCC(CCCC)CCCCCC)C4=CC=C(S4)C5=C(C(F)=C(C6=NN(N=C65)CC(CCCC)CCCCCC)C7=CC=C(S7)C)F,99.592,42.2,2.36,1,1.5,CF,DIO,NA,100,,Adv. Mater.,10.1002/adma.201700144
230,98,2017,11.4,11,15.9,0.71,1.01,ITCC,5.47,3.76,1.71,CCCCCCC(C=C1)=CC=C1C2(C3=CC=C(CCCCCC)C=C3)C4=CC5=C(C(C6=C5SC7=C6SC(/C=C8C(C(SC=C9)=C9C\8=C(C#N)\C#N)=O)=C7)(C%10=CC=C(CCCCCC)C=C%10)C%11=CC=C(CCCCCC)C=C%11)C=C4C%12=C2C(SC(/C=C%13C(C(SC=C%14)=C%14C\%13=C(C#N)/C#N)=O)=C%15)=C%15S%12,1440,PBDB-T,5.33,3.53,1.8,CC(SC1=C2C3=CC=C(CC(CC)CCCC)S3)=CC1=C(C4=CC=C(CC(CC)CCCC)S4)C5=C2C=C(S5)C6=CC=C(C7=C8C(C(C9=C(CC(CC)CCCC)SC(CC(CC)CCCC)=C9C8=O)=O)=C(C%10=CC=C(C)S%10)S7)S6,117,58.5,2,1,1,CB,DIO,100,110,,Adv. Mater.,10.1002/adma.201700254
231,98,2017,10.6,10.3,17,0.67,0.93,ITIC,5.5,3.9,1.6,CCCCCCC(C=C1)=CC=C1C2(C3=CC=C(CCCCCC)C=C3)C4=CC5=C(C(C6=C5SC7=C6SC(/C=C8C(C(C=CC=C9)=C9C\8=C(C#N)\C#N)=O)=C7)(C%10=CC=C(CCCCCC)C=C%10)C%11=CC=C(CCCCCC)C=C%11)C=C4C%12=C2C(SC(/C=C%13C(C(C=CC=C%14)=C%14C\%13=C(C#N)/C#N)=O)=C%15)=C%15S%12,1427.96,PBDB-T,5.33,3.53,1.8,CC(SC1=C2C3=CC=C(CC(CC)CCCC)S3)=CC1=C(C4=CC=C(CC(CC)CCCC)S4)C5=C2C=C(S5)C6=CC=C(C7=C8C(C(C9=C(CC(CC)CCCC)SC(CC(CC)CCCC)=C9C8=O)=O)=C(C%10=CC=C(C)S%10)S7)S6,117,58.5,2,1,1,CB,DIO,100,110,,Adv. Mater.,10.1002/adma.201700254
232,99,2017,9.4,9.1,17.1,0.651,0.843,IT-M,5.56,3.98,1.58,CCCCCCC(C=C1)=CC=C1C2(C3=CC=C(CCCCCC)C=C3)C4=CC5=C(C(C6=C5SC7=C6SC(/C=C8C(C(C=CC(C)=C9)=C9C\8=C(C#N)\C#N)=O)=C7)(C%10=CC=C(CCCCCC)C=C%10)C%11=CC=C(CCCCCC)C=C%11)C=C4C%12=C2C(SC(/C=C%13C(C(C=CC(C)=C%14)=C%14C\%13=C(C#N)/C#N)=O)=C%15)=C%15S%12,1456.01,J52,5.21,2.99,2.22,CC1=CC(C(S1)=C2C3=CC=C(CC(CC)CCCC)S3)=C(C4=C2C=C(C5=CC=C(C6=C(F)C(F)=C(C7=CC=C(C)S7)C8=NN(CC(CCCCCC)CCCCCCCC)N=C68)S5)S4)C9=CC=C(CC(CC)CCCC)S9,170,53.125,3.2,1,1,CB,DIO,150,100,,Adv. Mater.,10.1002/adma.201700437
233,99,2017,6.5,6.5,15.1,0.51,0.848,IEICO,5.32,3.95,1.37,CCCCCCC(C=C1)=CC=C1C(C2=C3SC(C4=C(OCC(CC)CCCC)C(C=C5C(C(C=CC=C6)=C6/C5=C(C#N)/C#N)=O)=CS4)=C2)(C7=CC=C(CCCCCC)C=C7)C8=C3C=C(C(C9=C%10SC(C%11=C(C(/C=C%12\C(C%13=C(C%12=O)C=CC=C%13)=C(C#N)\C#N)=CS%11)OCC(CCCC)CC)=C9)(C%14=CC=C(CCCCCC)C=C%14)C%15=CC=C(CCCCCC)C=C%15)C%10=C8,1736.46,J52,5.21,2.99,2.22,CC1=CC(C(S1)=C2C3=CC=C(CC(CC)CCCC)S3)=C(C4=C2C=C(C5=CC=C(C6=C(F)C(F)=C(C7=CC=C(C)S7)C8=NN(CC(CCCCCC)CCCCCCCC)N=C68)S5)S4)C9=CC=C(CC(CC)CCCC)S9,170,53.125,3.2,1,1,CB,DIO,NA,100,,Adv. Mater.,10.1002/adma.201700437
234,100,2017,9.77,9.41,18.75,0.668,0.75,IHIC,5.45,3.93,1.52,O=C(C(C=CC=C1)=C1C/2=C(C#N)/C#N)C2=C/C(S3)=CC4=C3C(SC5=C6SC7=C5C(C8=CC=C(CCCCCC)C=C8)(C9=CC=C(CCCCCC)C=C9)C%10=C7SC(/C=C%11C(C(C=CC=C%12)=C%12C\%11=C(C#N)\C#N)=O)=C%10)=C6C4(C%13=CC=C(CCCCCC)C=C%13)C%14=CC=C(CCCCCC)C=C%14,1377.9,PTB7-Th,5.2,3.6,1.6,O=C(OCC(CC)CCCC)C1=C(F)C2=C(C)SC(C3=CC4=C(C(C5=CC=C(CC(CC)CCCC)S5)=C(C=C(C)S6)C6=C4C7=CC=C(CC(CC)CCCC)S7)S3)=C2S1,124,72.9,1.7,1,1.5,DCB,CN,NA,,,Adv. Mater.,10.1002/adma.201701308
235,101,2017,8.11,8.09,15.67,0.561,0.92,ITIC1,5.48,3.84,1.64,O=C(C(C=CC=C1)=C1C/2=C(C#N)/C#N)C2=C/C(S3)=CC4=C3C(SC5=C6C=C(S7)C(C(C8(C9=CC=C(CCCCCC)C=C9)C%10=CC=C(CCCCCC)C=C%10)=C7C%11=C8C=C(/C=C%12C(C(C=CC=C%13)=C%13C\%12=C(C#N)\C#N)=O)S%11)=C5)=C6C4(C%14=CC=C(CCCCCC)C=C%14)C%15=CC=C(CCCCCC)C=C%15,1427.96,FTAZ,5.38,3.17,2.21,CC1=CC2=C(S1)C(CCC(CCCC)CCCCCC)=C3C=C(SC3=C2CCC(CCCC)CCCCCC)C4=CC=C(S4)C5=C(C(F)=C(C6=NN(N=C65)CC(CCCC)CCCCCC)C7=CC=C(S7)C)F,99.592,42.2,2.36,1,1.3,CF,NA,110,90,,Adv. Mater.,10.1002/adma.201702125
236,101,2017,11,10.6,18.63,0.62,0.922,ITIC2,5.43,3.8,1.63,O=C(C(C=CC=C1)=C1C/2=C(C#N)/C#N)C2=C/C(S3)=CC4=C3C(SC5=C6C(C7=CC=C(CC(CC)CCCC)S7)=C(S8)C(C(C9(C%10=CC=C(CCCCCC)C=C%10)C%11=CC=C(CCCCCC)C=C%11)=C8C%12=C9C=C(/C=C%13C(C(C=CC=C%14)=C%14C\%13=C(C#N)\C#N)=O)S%12)=C5C%15=CC=C(CC(CC)CCCC)S%15)=C6C4(C%16=CC=C(CCCCCC)C=C%16)C%17=CC=C(CCCCCC)C=C%17,1816.63,FTAZ,5.38,3.17,2.21,CC1=CC2=C(S1)C(CCC(CCCC)CCCCCC)=C3C=C(SC3=C2CCC(CCCC)CCCCCC)C4=CC=C(S4)C5=C(C(F)=C(C6=NN(N=C65)CC(CCCC)CCCCCC)C7=CC=C(S7)C)F,99.592,42.2,2.36,1,1.3,CF,NA,110,90,,Adv. Mater.,10.1002/adma.201702125
237,102,2017,11.5,11.3,16.4,0.762,0.92,IDIC,5.69,3.98,1.71,O=C(C(C=CC=C1)=C1C/2=C(C#N)\C#N)C2=C/C(S3)=CC4=C3C5=C(C4(CCCCCC)CCCCCC)C=C6C(C(CCCCCC)(CCCCCC)C7=C6SC(/C=C8C(C(C=CC=C9)=C9C\8=C(C#N)/C#N)=O)=C7)=C5,1011.4,PTZ1,5.31,3.34,1.97,CC(SC1=C2C3=CC=C(CC(CC)CCCC)S3)=CC1=C(C4=CC=C(CC(CC)CCCC)S4)C5=C2C=C(S5)C6=C(CC(CC)CCCC)C=C(C7=NC8=C(N=C(C9=CC(CC(CC)CCCC)=C(C)S9)S8)S7)S6,46.74,24.6,1.9,1,1.5,CF,NA,120,,,Adv. Mater.,10.1002/adma.201702291
238,103,2017,10.1,9.65,23.8,0.607,0.7,IEICO-4Cl,5.56,4.23,1.33,CCCCCCC(C=C1)=CC=C1C(C2=C3SC(C4=C(OCC(CC)CCCC)C(C=C5C(C(C=C(Cl)C(Cl)=C6)=C6/C5=C(C#N)/C#N)=O)=CS4)=C2)(C7=CC=C(CCCCCC)C=C7)C8=C3C=C(C(C9=C%10SC(C%11=C(C(/C=C%12\C(C%13=C(C%12=O)C=C(Cl)C(Cl)=C%13)=C(C#N)\C#N)=CS%11)OCC(CCCC)CC)=C9)(C%14=CC=C(CCCCCC)C=C%14)C%15=CC=C(CCCCCC)C=C%15)C%10=C8,1874.23,J52,5.4,3.32,2.08,CC1=CC(C(S1)=C2C3=CC=C(CC(CC)CCCC)S3)=C(C4=C2C=C(C5=CC=C(C6=C(F)C(F)=C(C7=CC=C(C)S7)C8=NN(CC(CCCCCC)CCCCCCCC)N=C68)S5)S4)C9=CC=C(CC(CC)CCCC)S9,170,53.125,3.2,1,1.5,CB,DIO,100,,,Adv. Mater.,10.1002/adma.201703080
239,103,2017,9.67,9.43,20.8,0.625,0.744,IEICO-4Cl,5.56,4.23,1.33,CCCCCCC(C=C1)=CC=C1C(C2=C3SC(C4=C(OCC(CC)CCCC)C(C=C5C(C(C=C(Cl)C(Cl)=C6)=C6/C5=C(C#N)/C#N)=O)=CS4)=C2)(C7=CC=C(CCCCCC)C=C7)C8=C3C=C(C(C9=C%10SC(C%11=C(C(/C=C%12\C(C%13=C(C%12=O)C=C(Cl)C(Cl)=C%13)=C(C#N)\C#N)=CS%11)OCC(CCCC)CC)=C9)(C%14=CC=C(CCCCCC)C=C%14)C%15=CC=C(CCCCCC)C=C%15)C%10=C8,1874.23,PBDB-T,5.33,3.53,1.8,CC(SC1=C2C3=CC=C(CC(CC)CCCC)S3)=CC1=C(C4=CC=C(CC(CC)CCCC)S4)C5=C2C=C(S5)C6=CC=C(C7=C8C(C(C9=C(CC(CC)CCCC)SC(CC(CC)CCCC)=C9C8=O)=O)=C(C%10=CC=C(C)S%10)S7)S6,117,58.5,2,1,1,CB,DIO,100,,,Adv. Mater.,10.1002/adma.201703080
240,103,2017,10.3,10,22.8,0.62,0.727,IEICO-4Cl,5.56,4.23,1.33,CCCCCCC(C=C1)=CC=C1C(C2=C3SC(C4=C(OCC(CC)CCCC)C(C=C5C(C(C=C(Cl)C(Cl)=C6)=C6/C5=C(C#N)/C#N)=O)=CS4)=C2)(C7=CC=C(CCCCCC)C=C7)C8=C3C=C(C(C9=C%10SC(C%11=C(C(/C=C%12\C(C%13=C(C%12=O)C=C(Cl)C(Cl)=C%13)=C(C#N)\C#N)=CS%11)OCC(CCCC)CC)=C9)(C%14=CC=C(CCCCCC)C=C%14)C%15=CC=C(CCCCCC)C=C%15)C%10=C8,1874.23,PTB7-Th,5.2,3.6,1.6,O=C(OCC(CC)CCCC)C1=C(F)C2=C(C)SC(C3=CC4=C(C(C5=CC=C(CC(CC)CCCC)S5)=C(C=C(C)S6)C6=C4C7=CC=C(CC(CC)CCCC)S7)S3)=C2S1,124,72.9,1.7,1,1.5,CB,NA,100,,,Adv. Mater.,10.1002/adma.201703080
241,104,2017,9.39,9.17,13.65,0.709,0.97,SFBRCN,5.93,3.86,2.07,O=C(/C(S/1)=C/C2=CC=C(C(C=C3)=CC4=C3C5=CC=C(C6=CC=C(/C=C7S/C(N(CC)C\7=O)=C(C#N)\C#N)C8=NSN=C68)C=C5C49C(C=CC(OCCCCCCCC)=C%10)=C%10C%11=CC(OCCCCCCCC)=CC=C%119)C%12=NSN=C2%12)N(CC)C1=C(C#N)/C#N,1247.58,PBDB-T,5.33,3.53,1.8,CC(SC1=C2C3=CC=C(CC(CC)CCCC)S3)=CC1=C(C4=CC=C(CC(CC)CCCC)S4)C5=C2C=C(S5)C6=CC=C(C7=C8C(C(C9=C(CC(CC)CCCC)SC(CC(CC)CCCC)=C9C8=O)=O)=C(C%10=CC=C(C)S%10)S7)S6,117,58.5,2,1,0.8,CB,DIO,NA,,,Adv. Mater.,10.1002/adma.201704271
242,104,2017,10.1,9.87,17.11,0.649,0.91,SFBRCN,5.93,3.86,2.07,O=C(/C(S/1)=C/C2=CC=C(C(C=C3)=CC4=C3C5=CC=C(C6=CC=C(/C=C7S/C(N(CC)C\7=O)=C(C#N)\C#N)C8=NSN=C68)C=C5C49C(C=CC(OCCCCCCCC)=C%10)=C%10C%11=CC(OCCCCCCCC)=CC=C%119)C%12=NSN=C2%12)N(CC)C1=C(C#N)/C#N,1247.58,PTB7-Th,5.27,3.55,1.72,O=C(OCC(CC)CCCC)C1=C(F)C2=C(C)SC(C3=CC4=C(C(C5=CC=C(CC(CC)CCCC)S5)=C(C=C(C)S6)C6=C4C7=CC=C(CC(CC)CCCC)S7)S3)=C2S1,124,72.9,1.7,1,0.8,CB,DIO,NA,,,Adv. Mater.,10.1002/adma.201704271
243,105,2018,2.21,2.16,4.97,0.367,1.165,ITCN,5.4,3.62,1.78,O=C(N(CCCCCC)/C(S/1)=C(C#N)\C#N)C1=C\C(S2)=CC(CC(CC)CCCC)=C2C(S3)=CC4=C3C5=CC(C(C6=CC=C(CCCCCC)S6)(C7=CC=C(CCCCCC)S7)C8=C9SC(C%10=C(CC(CC)CCCC)C=C(/C=C%11S/C(N(C\%11=O)CCCCCC)=C(C#N)/C#N)S%10)=C8)=C9C=C5C4(C%12=CC=C(CCCCC)S%12)C%13=CC=C(CCCCCC)S%13,1824.8,PBDB-T,5.21,3.41,1.8,CC(SC1=C2C3=CC=C(CC(CC)CCCC)S3)=CC1=C(C4=CC=C(CC(CC)CCCC)S4)C5=C2C=C(S5)C6=CC=C(C7=C8C(C(C9=C(CC(CC)CCCC)SC(CC(CC)CCCC)=C9C8=O)=O)=C(C%10=CC=C(C)S%10)S7)S6,117,58.5,2,1,1,CB,DIO,100,,,Adv. Mater.,10.1002/adma.201703005
244,105,2018,10.89,10.81,17.05,0.681,0.937,IT-M,5.58,3.98,1.6,CCCCCCC(C=C1)=CC=C1C2(C3=CC=C(CCCCCC)C=C3)C4=CC5=C(C(C6=C5SC7=C6SC(/C=C8C(C(C=CC(C)=C9)=C9C\8=C(C#N)\C#N)=O)=C7)(C%10=CC=C(CCCCCC)C=C%10)C%11=CC=C(CCCCCC)C=C%11)C=C4C%12=C2C(SC(/C=C%13C(C(C=CC(C)=C%14)=C%14C\%13=C(C#N)/C#N)=O)=C%15)=C%15S%12,1456.01,PBDB-T,5.21,3.41,1.8,CC(SC1=C2C3=CC=C(CC(CC)CCCC)S3)=CC1=C(C4=CC=C(CC(CC)CCCC)S4)C5=C2C=C(S5)C6=CC=C(C7=C8C(C(C9=C(CC(CC)CCCC)SC(CC(CC)CCCC)=C9C8=O)=O)=C(C%10=CC=C(C)S%10)S7)S6,117,58.5,2,1,1,CB,DIO,100,,,Adv. Mater.,10.1002/adma.201703005
245,106,2018,11.72,11.25,17.15,0.677,1.01,ITIC,5.48,3.83,1.65,CCCCCCC(C=C1)=CC=C1C2(C3=CC=C(CCCCCC)C=C3)C4=CC5=C(C(C6=C5SC7=C6SC(/C=C8C(C(C=CC=C9)=C9C\8=C(C#N)\C#N)=O)=C7)(C%10=CC=C(CCCCCC)C=C%10)C%11=CC=C(CCCCCC)C=C%11)C=C4C%12=C2C(SC(/C=C%13C(C(C=CC=C%14)=C%14C\%13=C(C#N)/C#N)=O)=C%15)=C%15S%12,1427.96,PBDT-TDZ,5.35,2.78,2.57,CC(SC1=C2C3=CC=C(CC(CCCC)CCCCCC)S3)=CC1=C(C4=CC=C(CC(CCCC)CCCCCC)S4)C5=C2C=C(S5)C6=C(CCCCCCCC)C=C(C7=NN=C(C8=CC(CCCCCCCC)=C(C)S8)S7)S6,66.36,31.6,2.1,1,1,OX,PN,100,,,Adv. Mater.,10.1002/adma.201703973
246,106,2018,12.8,12.35,17.78,0.654,1.1,ITIC,5.48,3.83,1.65,CCCCCCC(C=C1)=CC=C1C2(C3=CC=C(CCCCCC)C=C3)C4=CC5=C(C(C6=C5SC7=C6SC(/C=C8C(C(C=CC=C9)=C9C\8=C(C#N)\C#N)=O)=C7)(C%10=CC=C(CCCCCC)C=C%10)C%11=CC=C(CCCCCC)C=C%11)C=C4C%12=C2C(SC(/C=C%13C(C(C=CC=C%14)=C%14C\%13=C(C#N)/C#N)=O)=C%15)=C%15S%12,1427.96,PBDTS-TDZ,5.39,2.8,2.59,CC(SC1=C2C3=CC=C(SCC(CCCC)CCCCCC)S3)=CC1=C(C4=CC=C(SCC(CCCC)CCCCCC)S4)C5=C2C=C(S5)C6=C(CCCCCCCC)C=C(C7=NN=C(C8=CC(CCCCCCCC)=C(C)S8)S7)S6,68.21,35.9,1.9,1,1,OX,NA,100,,,Adv. Mater.,10.1002/adma.201703973
247,107,2018,11.5,11.3,17.3,0.7,0.95,IDIC,5.65,3.91,1.74,O=C(C(C=CC=C1)=C1C/2=C(C#N)\C#N)C2=C/C(S3)=CC4=C3C5=C(C4(CCCCCC)CCCCCC)C=C6C(C(CCCCCC)(CCCCCC)C7=C6SC(/C=C8C(C(C=CC=C9)=C9C\8=C(C#N)/C#N)=O)=C7)=C5,1011.4,PM6,5.5,3.61,1.89,CC(SC1=C2C3=CC(F)=C(CC(CC)CCCC)S3)=CC1=C(C4=CC(F)=C(CC(CC)CCCC)S4)C5=C2C=C(S5)C6=CC=C(C7=C8C(C(C9=C(CC(CC)CCCC)SC(CC(CC)CCCC)=C9C8=O)=O)=C(C%10=CC=C(C)S%10)S7)S6,38.6,19.3,2,1,1,CB,NA,150,,,Adv. Mater.,10.1002/adma.201704546
248,108,2018,7.45,7.3,15.7,0.612,0.775,IHIC2,5.69,3.86,1.83,O=C(C(C=C(F)C(F)=C1)=C1C/2=C(C#N)/C#N)C2=C/C(S3)=CC4=C3C(C=CC5=C6C=CC7=C5C(C8=CC=C(CCCCCC)C=C8)(C9=CC=C(CCCCCC)C=C9)C%10=C7SC(/C=C%11C(C(C=C(F)C(F)=C%12)=C%12C\%11=C(C#N)\C#N)=O)=C%10)=C6C4(C%13=CC=C(CCCCCC)C=C%13)C%14=CC=C(CCCCCC)C=C%14,1437.81,FTAZ,5.38,3.17,2.21,CC1=CC2=C(S1)C(CCC(CCCC)CCCCCC)=C3C=C(SC3=C2CCC(CCCC)CCCCCC)C4=CC=C(S4)C5=C(C(F)=C(C6=NN(N=C65)CC(CCCC)CCCCCC)C7=CC=C(S7)C)F,99.592,42.2,2.36,1,1.5,CF,NA,NA,100,,Adv. Mater.,10.1002/adma.201704713
249,108,2018,12.3,12.1,19.7,0.693,0.9,IOIC-2,5.41,3.78,1.63,O=C(C(C=C(F)C(F)=C1)=C1C/2=C(C#N)/C#N)C2=C/C(S3)=CC4=C3C5=C(C(C(CCCCCC)=CC6=C7C=C(CCCCCC)C8=C6SC9=C8C(C%10=CC=C(CCCCCC)C=C%10)(C%11=CC=C(CCCCCC)C=C%11)C%12=C9SC(/C=C%13C(C(C=C(F)C(F)=C%14)=C%14C\%13=C(C#N)\C#N)=O)=C%12)=C7S5)C4(C%15=CC=C(CCCCCC)C=C%15)C%16=CC=C(CCCCCC)C=C%16,1718.3,FTAZ,5.38,3.17,2.21,CC1=CC2=C(S1)C(CCC(CCCC)CCCCCC)=C3C=C(SC3=C2CCC(CCCC)CCCCCC)C4=CC=C(S4)C5=C(C(F)=C(C6=NN(N=C65)CC(CCCC)CCCCCC)C7=CC=C(S7)C)F,99.592,42.2,2.36,1,1.5,CF,DIO,NA,,,Adv. Mater.,10.1002/adma.201704713
250,109,2018,10.42,10.15,17.85,0.672,0.868,NFBDT,5.4,3.83,1.57,O=C1C2=C(C(/C1=C/C(S3)=CC4=C3C5=C(C4(C6=CC=C(CCCCCC)C=C6)C7=CC=C(CCCCCC)C=C7)C8=CC(SC9=C%10C(C%11=CC=C(CCCCCC)C=C%11)(C%12=CC=C(CCCCCC)C=C%12)C%13=C9SC(/C=C%14C(C(C=CC=C%15)=C%15C\%14=C(C#N)\C#N)=O)=C%13)=C%10C=C8S5)=C(C#N)/C#N)C=CC=C2,1427.96,PBDB-T,5.33,3.53,1.8,CC(SC1=C2C3=CC=C(CC(CC)CCCC)S3)=CC1=C(C4=CC=C(CC(CC)CCCC)S4)C5=C2C=C(S5)C6=CC=C(C7=C8C(C(C9=C(CC(CC)CCCC)SC(CC(CC)CCCC)=C9C8=O)=O)=C(C%10=CC=C(C)S%10)S7)S6,117,58.5,2,1,0.8,CF,NA,NA,100,,Adv. Mater.,10.1002/adma.201704904
251,109,2018,12.12,11.62,20.33,0.71,0.839,NCBDT,5.36,3.89,1.47,O=C1C2=C(C(/C1=C/C(S3)=CC4=C3C5=C(C4(C6=CC=C(CCCCCC)C=C6)C7=CC=C(CCCCCC)C=C7)C8=C(CCCCCCCC)C(SC9=C%10C(C%11=CC=C(CCCCCC)C=C%11)(C%12=CC=C(CCCCCC)C=C%12)C%13=C9SC(/C=C%14C(C(C=CC(F)=C%15)=C%15C\%14=C(C#N)\C#N)=O)=C%13)=C%10C(CCCCCCCC)=C8S5)=C(C#N)/C#N)C=C(F)C=C2,1688.37,PBDB-T,5.33,3.53,1.8,CC(SC1=C2C3=CC=C(CC(CC)CCCC)S3)=CC1=C(C4=CC=C(CC(CC)CCCC)S4)C5=C2C=C(S5)C6=CC=C(C7=C8C(C(C9=C(CC(CC)CCCC)SC(CC(CC)CCCC)=C9C8=O)=O)=C(C%10=CC=C(C)S%10)S7)S6,117,58.5,2,1,0.8,CF,NA,NA,100,,Adv. Mater.,10.1002/adma.201704904
252,109,2018,9.89,9.89,18.64,0.685,0.775,NCBDT,5.36,3.89,1.47,O=C1C2=C(C(/C1=C/C(S3)=CC4=C3C5=C(C4(C6=CC=C(CCCCCC)C=C6)C7=CC=C(CCCCCC)C=C7)C8=C(CCCCCCCC)C(SC9=C%10C(C%11=CC=C(CCCCCC)C=C%11)(C%12=CC=C(CCCCCC)C=C%12)C%13=C9SC(/C=C%14C(C(C=CC(F)=C%15)=C%15C\%14=C(C#N)\C#N)=O)=C%13)=C%10C(CCCCCCCC)=C8S5)=C(C#N)/C#N)C=C(F)C=C2,1688.37,PTB7-Th,5.2,3.6,1.6,O=C(OCC(CC)CCCC)C1=C(F)C2=C(C)SC(C3=CC4=C(C(C5=CC=C(CC(CC)CCCC)S5)=C(C=C(C)S6)C6=C4C7=CC=C(CC(CC)CCCC)S7)S3)=C2S1,124,72.9,1.7,1,0.8,CF,NA,NA,100,,Adv. Mater.,10.1002/adma.201704904
253,110,2018,10.14,10.12,15.66,0.72,0.91,DF-PCIC,5.49,3.77,1.72,O=C1C2=C(C(/C1=C/C(S3)=CC4=C3C5=C(C4(CC(CC)CCCC)CC(CC)CCCC)C=C(C(C(F)=C6)=CC(F)=C6C(S7)=CC8=C7C(SC(/C=C9C(C(C=CC=C%10)=C%10C\9=C(C#N)\C#N)=O)=C%11)=C%11C8(CC(CC)CCCC)CC(CC)CCCC)S5)=C(C#N)/C#N)C=CC=C2,1323.84,PBDB-T,5.33,3.53,1.8,CC(SC1=C2C3=CC=C(CC(CC)CCCC)S3)=CC1=C(C4=CC=C(CC(CC)CCCC)S4)C5=C2C=C(S5)C6=CC=C(C7=C8C(C(C9=C(CC(CC)CCCC)SC(CC(CC)CCCC)=C9C8=O)=O)=C(C%10=CC=C(C)S%10)S7)S6,117,58.5,2,1,1.2,CF,CN,130,,,Adv. Mater.,10.1002/adma.201705208
254,111,2018,10,9.9,17,0.66,0.89,ITIC,5.64,3.92,1.72,CCCCCCC(C=C1)=CC=C1C2(C3=CC=C(CCCCCC)C=C3)C4=CC5=C(C(C6=C5SC7=C6SC(/C=C8C(C(C=CC=C9)=C9C\8=C(C#N)\C#N)=O)=C7)(C%10=CC=C(CCCCCC)C=C%10)C%11=CC=C(CCCCCC)C=C%11)C=C4C%12=C2C(SC(/C=C%13C(C(C=CC=C%14)=C%14C\%13=C(C#N)/C#N)=O)=C%15)=C%15S%12,1427.96,PBDB-T,5.33,3.29,2.04,CC(SC1=C2C3=CC=C(CC(CC)CCCC)S3)=CC1=C(C4=CC=C(CC(CC)CCCC)S4)C5=C2C=C(S5)C6=CC=C(C7=C8C(C(C9=C(CC(CC)CCCC)SC(CC(CC)CCCC)=C9C8=O)=O)=C(C%10=CC=C(C)S%10)S7)S6,48.3,23,2.1,1,1,CB,DIO,160,,,Adv. Mater.,10.1002/adma.201705209
255,111,2018,12.41,11.9,19.7,0.73,0.87,C8-ITIC,5.63,3.91,1.72,O=C(C(C=CC=C1)=C1C/2=C(C#N)\C#N)C2=C/C3=CC(S4)=C(S3)C5=C4C6=CC(C(CCCCCCCC)(CCCCCCCC)C7=C8SC9=C7SC(/C=C%10C(C(C=CC=C%11)=C%11C\%10=C(C#N)\C#N)=O)=C9)=C8C=C6C5(CCCCCCCC)CCCCCCCC,1235.78,PBDB-T,5.33,3.29,2.04,CC(SC1=C2C3=CC=C(CC(CC)CCCC)S3)=CC1=C(C4=CC=C(CC(CC)CCCC)S4)C5=C2C=C(S5)C6=CC=C(C7=C8C(C(C9=C(CC(CC)CCCC)SC(CC(CC)CCCC)=C9C8=O)=O)=C(C%10=CC=C(C)S%10)S7)S6,48.3,23,2.1,1,1.25,CB,NA,NA,,,Adv. Mater.,10.1002/adma.201705209
256,111,2018,11.71,11.5,18.5,0.66,0.95,ITIC,5.64,3.92,1.72,CCCCCCC(C=C1)=CC=C1C2(C3=CC=C(CCCCCC)C=C3)C4=CC5=C(C(C6=C5SC7=C6SC(/C=C8C(C(C=CC=C9)=C9C\8=C(C#N)\C#N)=O)=C7)(C%10=CC=C(CCCCCC)C=C%10)C%11=CC=C(CCCCCC)C=C%11)C=C4C%12=C2C(SC(/C=C%13C(C(C=CC=C%14)=C%14C\%13=C(C#N)/C#N)=O)=C%15)=C%15S%12,1427.96,PFBDB-T,5.47,3.46,2.01,CC(SC1=C2C3=CC=C(CC(CC)CCCC)S3)=CC1=C(C4=CC=C(CC(CC)CCCC)S4)C5=C2C=C(S5)C6=C(F)C=C(C7=C8C(C(C9=C(CC(CC)CCCC)SC(CC(CC)CCCC)=C9C8=O)=O)=C(C%10=CC(F)=C(C)S%10)S7)S6,67.6,26,2.6,1,1.25,CB,NA,NA,,,Adv. Mater.,10.1002/adma.201705209
257,111,2018,13.2,12.4,19.6,0.72,0.94,C8-ITIC,5.63,3.91,1.72,O=C(C(C=CC=C1)=C1C/2=C(C#N)\C#N)C2=C/C3=CC(S4)=C(S3)C5=C4C6=CC(C(CCCCCCCC)(CCCCCCCC)C7=C8SC9=C7SC(/C=C%10C(C(C=CC=C%11)=C%11C\%10=C(C#N)\C#N)=O)=C9)=C8C=C6C5(CCCCCCCC)CCCCCCCC,1235.78,PFBDB-T,5.47,3.46,2.01,CC(SC1=C2C3=CC=C(CC(CC)CCCC)S3)=CC1=C(C4=CC=C(CC(CC)CCCC)S4)C5=C2C=C(S5)C6=C(F)C=C(C7=C8C(C(C9=C(CC(CC)CCCC)SC(CC(CC)CCCC)=C9C8=O)=O)=C(C%10=CC(F)=C(C)S%10)S7)S6,67.6,26,2.6,1,1.25,CB,NA,NA,,,Adv. Mater.,10.1002/adma.201705209
258,112,2018,11.63,11.23,17.52,0.741,0.896,ITCPTC,5.62,3.96,1.66,CCCCCCC(C=C1)=CC=C1C2(C3=CC=C(CCCCCC)C=C3)C4=CC5=C(C(C6=C5SC7=C6SC(/C=C8C(C9=CSC=C9C\8=C(C#N)\C#N)=O)=C7)(C%10=CC=C(CCCCCC)C=C%10)C%11=CC=C(CCCCCC)C=C%11)C=C4C%12=C2C(SC(/C=C%13C(C%14=CSC=C%14C\%13=C(C#N)/C#N)=O)=C%15)=C%15S%12,1440,J71,5.4,3.24,2.16,CCC[Si](CCC)(C1=CC=C(C(C2=C3C=C(C4=CC=C(C5=C(F)C(F)=C(C6=CC=C(C)S6)C7=NN(CC(CCCCCC)CCCCCCCC)N=C57)S4)S2)=C8C(SC(C)=C8)=C3C9=CC=C([Si](CCC)(CCC)CCC)S9)S1)CCC,47,23.5,2,1,1,CF,NA,150,110,,Adv. Mater.,10.1002/adma.201706124
259,112,2018,12.54,12.13,18.41,0.742,0.918,MeIC,5.57,3.92,1.65,CCCCCCC(C=C1)=CC=C1C2(C3=CC=C(CCCCCC)C=C3)C4=CC5=C(C(C6=C5SC7=C6SC(/C=C8C(C9=C(C)SC=C9C\8=C(C#N)\C#N)=O)=C7)(C%10=CC=C(CCCCCC)C=C%10)C%11=CC=C(CCCCCC)C=C%11)C=C4C%12=C2C(SC(/C=C%13C(C%14=C(C)SC=C%14C\%13=C(C#N)/C#N)=O)=C%15)=C%15S%12,1468.05,J71,5.4,3.24,2.16,CCC[Si](CCC)(C1=CC=C(C(C2=C3C=C(C4=CC=C(C5=C(F)C(F)=C(C6=CC=C(C)S6)C7=NN(CC(CCCCCC)CCCCCCCC)N=C57)S4)S2)=C8C(SC(C)=C8)=C3C9=CC=C([Si](CCC)(CCC)CCC)S9)S1)CCC,47,23.5,2,1,1,CF,NA,150,110,,Adv. Mater.,10.1002/adma.201706124