ID,Ref,year,PCE_max(%),PCE_ave(%),Jsc(mA/cm2),FF,Voc(V),Nickname(n),-HOMO_n(eV),-LUMO_n(eV),Eg_n(eV),n(SMILES),M (g/mol),Nickname(p),-HOMO_p(eV),-LUMO_p(eV),Eg_p(eV),p(SMILES),Mw (kg/mol),Mn(kg/mol),PDI,p/n ratio (p),p/n ratio (n),Solvent,Additive,TA (oC),thick (nm),,Journal,DOI
1183,516,2019,7.35,7.27,15.79,0.557,0.826,SF-4PDI2,5.83,3.8,2.03,O=C(N(C(CCCCCC)CCCCCC)C1=O)C2=CC=C(C3=C4C5=CC1C32)C6=C(C(C=C7)=CC8=C7C(C=CC(C9=CC%10C%11C%12=C9C%13=CC=C(C(N%14C(CCCCCC)CCCCCC)=O)C%15=C%13C(C%12=C%16C=C%11C(N(C(CCCCCC)CCCCCC)C%10=O)=O)=C(C%17=C%16C%18=CC%19C%20C%21=C%18C%22=C%17C=C(C(N%23C(CCCCCC)CCCCCC)=O)C%24=C%22C(C%21=C%25C=C%20C(N(C(CCCCCC)CCCCCC)C%19=O)=O)=C(CC%25)C=C%24C%23=O)C=C%15C%14=O)=C%26)=C%26C%278C%28=C(C=CC(C%29=CC%30C%31C%32=C%29C%33=CC=C(C(N%34C(CCCCCC)CCCCCC)=O)C%35=C%33C(C%32=C%36C=C%31C(N(C(CCCCCC)CCCCCC)C%30=O)=O)=C(C%37=C%36C%38=CC%39C%40C%41=C%38C%42=C%37C=C(C(N%43C(CCCCCC)CCCCCC)=O)C%44=C%42C(C%41=C%45C=C%40C(N(C(CCCCCC)CCCCCC)C%39=O)=O)=C(CC%45)C=C%44C%43=O)C=C%35C%34=O)=C%28)C%46=C%27C=C(C%47=CC%48C%49C%50=C%47C%51=CC=C(C(N%52C(CCCCCC)CCCCCC)=O)C%53=C%51C(C%50=C(C%54=C%55C(C=C%56C(N(C(CCCCCC)CCCCCC)C%57=O)=O)=C%58C%59=C%56C%57=CC%60=C%59C%61=C(CC%60)C=C(C%62=O)C%63C%61=C%58C%54=CC%63C(N%62C(CCCCCC)CCCCCC)=O)C=C%49C(N(C(CCCCCC)CCCCCC)C%48=O)=O)=C%55C=C%53C%52=O)C=C%46)C=C%64C%65=C6C4=C(C%66=C5C%67=C(C%68=C%69C%70=CC%71C%68C(C(N(C(CCCCCC)CCCCCC)C%71=O)=O)=C%67)C%72=C%66C=C%73C%74=C%72C%69=C(CC%70)C=C%74C(N(C(CCCCCC)CCCCCC)C%73=O)=O)C=C%65C(N(C(CCCCCC)CCCCCC)C%64=O)=O,6549.03,PTB7-Th,5.12,3.6,1.52,O=C(OCC(CC)CCCC)C1=C(F)C2=C(C)SC(C3=CC4=C(C(C5=CC=C(CC(CC)CCCC)S5)=C(C=C(C)S6)C6=C4C7=CC=C(CC(CC)CCCC)S7)S3)=C2S1,124,72.9,1.700960219,1,1.2,DCB,NA,60,,,,
1184,516,2019,7.69,7.52,15.64,0.586,0.822,SF-4PDI2,5.83,3.8,2.03,O=C(N(C(CCCCCC)CCCCCC)C1=O)C2=CC=C(C3=C4C5=CC1C32)C6=C(C(C=C7)=CC8=C7C(C=CC(C9=CC%10C%11C%12=C9C%13=CC=C(C(N%14C(CCCCCC)CCCCCC)=O)C%15=C%13C(C%12=C%16C=C%11C(N(C(CCCCCC)CCCCCC)C%10=O)=O)=C(C%17=C%16C%18=CC%19C%20C%21=C%18C%22=C%17C=C(C(N%23C(CCCCCC)CCCCCC)=O)C%24=C%22C(C%21=C%25C=C%20C(N(C(CCCCCC)CCCCCC)C%19=O)=O)=C(CC%25)C=C%24C%23=O)C=C%15C%14=O)=C%26)=C%26C%278C%28=C(C=CC(C%29=CC%30C%31C%32=C%29C%33=CC=C(C(N%34C(CCCCCC)CCCCCC)=O)C%35=C%33C(C%32=C%36C=C%31C(N(C(CCCCCC)CCCCCC)C%30=O)=O)=C(C%37=C%36C%38=CC%39C%40C%41=C%38C%42=C%37C=C(C(N%43C(CCCCCC)CCCCCC)=O)C%44=C%42C(C%41=C%45C=C%40C(N(C(CCCCCC)CCCCCC)C%39=O)=O)=C(CC%45)C=C%44C%43=O)C=C%35C%34=O)=C%28)C%46=C%27C=C(C%47=CC%48C%49C%50=C%47C%51=CC=C(C(N%52C(CCCCCC)CCCCCC)=O)C%53=C%51C(C%50=C(C%54=C%55C(C=C%56C(N(C(CCCCCC)CCCCCC)C%57=O)=O)=C%58C%59=C%56C%57=CC%60=C%59C%61=C(CC%60)C=C(C%62=O)C%63C%61=C%58C%54=CC%63C(N%62C(CCCCCC)CCCCCC)=O)C=C%49C(N(C(CCCCCC)CCCCCC)C%48=O)=O)=C%55C=C%53C%52=O)C=C%46)C=C%64C%65=C6C4=C(C%66=C5C%67=C(C%68=C%69C%70=CC%71C%68C(C(N(C(CCCCCC)CCCCCC)C%71=O)=O)=C%67)C%72=C%66C=C%73C%74=C%72C%69=C(CC%70)C=C%74C(N(C(CCCCCC)CCCCCC)C%73=O)=O)C=C%65C(N(C(CCCCCC)CCCCCC)C%64=O)=O,6549.03,PTB7-Th,5.12,3.6,1.52,O=C(OCC(CC)CCCC)C1=C(F)C2=C(C)SC(C3=CC4=C(C(C5=CC=C(CC(CC)CCCC)S5)=C(C=C(C)S6)C6=C4C7=CC=C(CC(CC)CCCC)S7)S3)=C2S1,124,72.9,1.700960219,1,1.2,DCB,NA,60,,,,
1185,517,2019,6.66,6.43,13.32,0.571,0.87,IT-4F,5.65,4.04,1.61,CCCCCCC(C=C1)=CC=C1C2(C3=CC=C(CCCCCC)C=C3)C4=CC5=C(C(C6=C5SC7=C6SC(/C=C8C(C(C=C(F)C(F)=C9)=C9C\8=C(C#N)\C#N)=O)=C7)(C%10=CC=C(CCCCCC)C=C%10)C%11=CC=C(CCCCCC)C=C%11)C=C4C%12=C2C(SC(/C=C%13C(C(C=C(F)C(F)=C%14)=C%14C\%13=C(C#N)/C#N)=O)=C%15)=C%15S%12,1499.92,PPN4T-2F,5.43,2.42,3.01,O=C1N(CC(CCCCCC)CCCCCCCC)C2=C(C=CC(C3=CC(CC(CCCCCC)CCCCCCCC)=C(C4=CC(F)=C(C5=C(F)C=C(C)S5)S4)S3)=C2)C6=C1C=C(C7=CC(CC(CCCCCC)CCCCCCCC)=C(C)S7)C=C6,141.696,65.6,2.16,1,1,CB,NA,NA,112,,,
1186,517,2019,8.54,8.32,16.15,0.642,0.82,IT-4F,5.65,4.04,1.61,CCCCCCC(C=C1)=CC=C1C2(C3=CC=C(CCCCCC)C=C3)C4=CC5=C(C(C6=C5SC7=C6SC(/C=C8C(C(C=C(F)C(F)=C9)=C9C\8=C(C#N)\C#N)=O)=C7)(C%10=CC=C(CCCCCC)C=C%10)C%11=CC=C(CCCCCC)C=C%11)C=C4C%12=C2C(SC(/C=C%13C(C(C=C(F)C(F)=C%14)=C%14C\%13=C(C#N)/C#N)=O)=C%15)=C%15S%12,1499.92,PPN4T-2F,5.43,2.42,3.01,O=C1N(CC(CCCCCC)CCCCCCCC)C2=C(C=CC(C3=CC(CC(CCCCCC)CCCCCCCC)=C(C4=CC(F)=C(C5=C(F)C=C(C)S5)S4)S3)=C2)C6=C1C=C(C7=CC(CC(CCCCCC)CCCCCCCC)=C(C)S7)C=C6,141.696,65.6,2.16,1,1,CB,DIO/CN,NA,112,,,
1187,518,2019,13.01,12.79,21.98,0.662,0.87,IEICF-DMOT,5.49,3.85,1.64,COC1=C(SC(/C=C2/C(C(C=C3F)=C(C2=O)C=C3F)=C(C#N)/C#N)=C1OC)C(S4)=CC5=C4C6=C(C(C7=CC=C(CCCCCC)C=C7)5C8=CC=C(CCCCCC)C=C8)C=C9C(C(C%10=C9SC(C%11=C(C(OC)=C(/C=C%12C(C(C=C(C(F)=C%13)F)=C%13C\%12=C(C#N)\C#N)=O)S%11)OC)=C%10)(C%14=CC=C(CCCCCC)C=C%14)C%15=CC=C(CCCCCC)C=C%15)=C6,1672.1,PBDB-T,5.33,3.53,1.8,CC(SC1=C2C3=CC=C(CC(CC)CCCC)S3)=CC1=C(C4=CC=C(CC(CC)CCCC)S4)C5=C2C=C(S5)C6=CC=C(C7=C8C(C(C9=C(CC(CC)CCCC)SC(CC(CC)CCCC)=C9C8=O)=O)=C(C%10=CC=C(C)S%10)S7)S6,117,58.5,2,1,1,CB,DIO,NA,100,,,
1188,518,2019,9.98,9.81,22.87,0.5729,0.74,IEICO-4F,5.39,3.93,1.46,CCCCCCC(C=C1)=CC=C1C(C2=C3SC(C4=C(OCC(CC)CCCC)C=C(/C=C5C(C(C=C(F)C(F)=C6)=C6C\5=C(C#N)\C#N)=O)S4)=C2)(C7=CC=C(CCCCCC)C=C7)C8=C3C=C(C(C9=C%10SC(C(S%11)=C(C=C%11/C=C%12/C(C(C=C%13F)=C(C%12=O)C=C%13F)=C(C#N)/C#N)OCC(CCCC)CC)=C9)(C%14=CC=C(CCCCCC)C=C%14)C%15=CC=C(CCCCCC)C=C%15)C%10=C8,1808.42,PBDB-T,5.33,3.53,1.8,CC(SC1=C2C3=CC=C(CC(CC)CCCC)S3)=CC1=C(C4=CC=C(CC(CC)CCCC)S4)C5=C2C=C(S5)C6=CC=C(C7=C8C(C(C9=C(CC(CC)CCCC)SC(CC(CC)CCCC)=C9C8=O)=O)=C(C%10=CC=C(C)S%10)S7)S6,117,58.5,2,1,1,CB,DIO,NA,100,,,
1189,519,2019,11.4,11.2,18.7,0.65,0.89,DPBDT-4Cl,5.62,3.94,1.68,O=C1C2=C(C=C(Cl)C(Cl)=C2)C(/C1=C/C3=CC(C(C4=CC=C(CCCCCC)C=C4)(C5=C6SC7=C(C8=CC=C(CCCCCC)C=C8)C9=C(C(C%10=CC=C(CCCCCC)C=C%10)=C57)SC(C%11=C%12C=C(/C=C%13/C(C(C=C(Cl)C(Cl)=C%14)=C%14C%13=O)=C(C#N)/C#N)S%11)=C9C%12(C%15=CC=C(CCCCCC)C=C%15)C%16=CC=C(CCCCCC)C=C%16)C%17=CC=C(CCCCCC)C=C%17)=C6S3)=C(C#N)\C#N,1886.24,PM6,5.5,3.68,1.82,CC(SC1=C2C3=CC(F)=C(CC(CC)CCCC)S3)=CC1=C(C4=CC(F)=C(CC(CC)CCCC)S4)C5=C2C=C(S5)C6=CC=C(C7=C8C(C(C9=C(CC(CC)CCCC)SC(CC(CC)CCCC)=C9C8=O)=O)=C(C%10=CC=C(C)S%10)S7)S6,38.6,19.3,2,1,1,CB,DIO,100,,,,
1190,519,2019,12.6,12.3,20.7,0.67,0.87,POBDT-4Cl,5.58,3.97,1.61,O=C1C2=C(C=C(Cl)C(Cl)=C2)C(/C1=C/C3=CC(C(C4=CC=C(CCCCCC)C=C4)(C5=C6SC7=C(C8=CC=C(CCCCCC)C=C8)C9=C(C(OCCCCCCCC)=C57)SC(C%10=C%11C=C(/C=C%12/C(C(C=C(Cl)C(Cl)=C%13)=C%13C%12=O)=C(C#N)/C#N)S%10)=C9C%11(C%14=CC=C(CCCCCC)C=C%14)C%15=CC=C(CCCCCC)C=C%15)C%16=CC=C(CCCCCC)C=C%16)=C6S3)=C(C#N)\C#N,1854.2,PM6,5.5,3.68,1.82,CC(SC1=C2C3=CC(F)=C(CC(CC)CCCC)S3)=CC1=C(C4=CC(F)=C(CC(CC)CCCC)S4)C5=C2C=C(S5)C6=CC=C(C7=C8C(C(C9=C(CC(CC)CCCC)SC(CC(CC)CCCC)=C9C8=O)=O)=C(C%10=CC=C(C)S%10)S7)S6,38.6,19.3,2,1,1,CB,DIO,100,,,,
1191,519,2019,13.5,13.2,21.6,0.7,0.86,COBDT-4Cl,5.57,3.98,1.59,O=C1C2=C(C=C(Cl)C(Cl)=C2)C(/C1=C/C3=CC(C(C4=CC=C(CCCCCC)C=C4)(C5=C6SC7=C(CCCCCCCC)C8=C(C(OCCCCCCCC)=C57)SC(C9=C%10C=C(/C=C%11/C(C(C=C(Cl)C(Cl)=C%12)=C%12C%11=O)=C(C#N)/C#N)S9)=C8C%10(C%13=CC=C(CCCCCC)C=C%13)C%14=CC=C(CCCCCC)C=C%14)C%15=CC=C(CCCCCC)C=C%15)=C6S3)=C(C#N)\C#N,1806.16,PM6,5.5,3.68,1.82,CC(SC1=C2C3=CC(F)=C(CC(CC)CCCC)S3)=CC1=C(C4=CC(F)=C(CC(CC)CCCC)S4)C5=C2C=C(S5)C6=CC=C(C7=C8C(C(C9=C(CC(CC)CCCC)SC(CC(CC)CCCC)=C9C8=O)=O)=C(C%10=CC=C(C)S%10)S7)S6,38.6,19.3,2,1,0.7,CB,DIO,100,,,,
1192,520,2019,1.46,1.46,4.4,0.409,0.81,BIBT-NI,5.62,3.65,1.97,O=C(N1CC(CC)CCCC)C2=C(C3=CC=C(C4=CC=C(C(N5CC(CC)CCCC)=O)C6=C4C=CC=C6C5=O)S3)C7=NSN=C7C(C8=CC=C(C9=CC=C(C(N%10CC(CC)CCCC)=O)C%11=C9C=CC=C%11C%10=O)S8)=C2C1=O,1096.43,P3HT,5,3.1,1.9,CC1=CC(CCCCCC)=C(C)S1,21.1,11.6,1.818965517,1,1.2,DCB,DIO,NA,90,,,
1193,520,2019,2.11,2.1,6.14,0.442,0.77,BIBT-NI,5.62,3.65,1.97,O=C(N1CC(CC)CCCC)C2=C(C3=CC=C(C4=CC=C(C(N5CC(CC)CCCC)=O)C6=C4C=CC=C6C5=O)S3)C7=NSN=C7C(C8=CC=C(C9=CC=C(C(N%10CC(CC)CCCC)=O)C%11=C9C=CC=C%11C%10=O)S8)=C2C1=O,1096.43,P3HT,5,3.1,1.9,CC1=CC(CCCCCC)=C(C)S1,21.1,11.6,1.818965517,1,1.2,DCB,DIO,110,90,,,
1194,521,2019,0.22,0.16,0.92,0.3,0.78,TQT1,5.24,3.87,1.37,CCOCCOCCOC(C=C1)=CC=C1C2=NC3=C(C4=CC=CS4)C5=NSN=C5C(C6=CC=CS6)=C3N=C2C7=CC=C(OCCOCCOCC)C=C7,768.96,POEGT,4.74,2.98,1.76,CC(S1)=CC=C1C(S2)=C(OCCOCCOCC)C=C2C3=CC=C(C4=CC(OCCOCCOCC)=C(C)S4)S3,50,25,2,1,1,DCB,NA,NA,50,,,
1195,521,2019,0.04,0.04,0.21,0.28,0.72,TQT2,4.51,3.72,0.79,CCOCCOCCOC(C=C1)=CC=C1C2=NC3=C(C4=CC=C(C5=CC=CS5)S4)C6=NSN=C6C(C7=CC=C(C8=CC=CS8)S7)=C3N=C2C9=CC=C(OCCOCCOCC)C=C9,933.2,POEGT,4.74,2.98,1.76,CC(S1)=CC=C1C(S2)=C(OCCOCCOCC)C=C2C3=CC=C(C4=CC(OCCOCCOCC)=C(C)S4)S3,50,25,2,1,1,DCB,NA,NA,90,,,
1196,521,2019,0.11,0.1,0.65,0.26,0.66,TQFP,5.85,3.89,1.96,CCOCCOCCOC(C=C1)=CC=C1C2=NC3=C(C4=C(F)C(F)=NC=C4)C5=NSN=C5C(C6=CC=NC(F)=C6F)=C3N=C2C7=CC=C(OCCOCCOCC)C=C7,830.86,POEGT,4.74,2.98,1.76,CC(S1)=CC=C1C(S2)=C(OCCOCCOCC)C=C2C3=CC=C(C4=CC(OCCOCCOCC)=C(C)S4)S3,50,25,2,1,1,DCB,NA,NA,120,,,
1197,521,2019,0.18,0.16,0.56,0.34,0.92,TQBT,5.68,3.77,1.91,CCOCCOCCOC(C=C1)=CC=C1C2=NC3=C(C4=CC5=NSN=C5C=C4)C6=NSN=C6C(C7=CC8=NSN=C8C=C7)=C3N=C2C9=CC=C(OCCOCCOCC)C=C9,873.03,POEGT,4.74,2.98,1.76,CC(S1)=CC=C1C(S2)=C(OCCOCCOCC)C=C2C3=CC=C(C4=CC(OCCOCCOCC)=C(C)S4)S3,50,25,2,1,1,DCB,NA,NA,120,,,
1198,522,2019,9.79,9.79,14.9,0.7034,0.934,IT-M,5.58,3.98,1.6,CCCCCCC(C=C1)=CC=C1C2(C3=CC=C(CCCCCC)C=C3)C4=CC5=C(C(C6=C5SC7=C6SC(/C=C8C(C(C=CC(C)=C9)=C9C\8=C(C#N)\C#N)=O)=C7)(C%10=CC=C(CCCCCC)C=C%10)C%11=CC=C(CCCCCC)C=C%11)C=C4C%12=C2C(SC(/C=C%13C(C(C=CC(C)=C%14)=C%14C\%13=C(C#N)/C#N)=O)=C%15)=C%15S%12,1456.01,PBDB-T,5.33,3.53,1.8,CC(SC1=C2C3=CC=C(CC(CC)CCCC)S3)=CC1=C(C4=CC=C(CC(CC)CCCC)S4)C5=C2C=C(S5)C6=CC=C(C7=C8C(C(C9=C(CC(CC)CCCC)SC(CC(CC)CCCC)=C9C8=O)=O)=C(C%10=CC=C(C)S%10)S7)S6,43.5,29,1.5,1,1,CB,DIO,100,100,,,
1199,522,2019,8.97,8.97,15.93,0.6062,0.929,IT-M,5.58,3.98,1.6,CCCCCCC(C=C1)=CC=C1C2(C3=CC=C(CCCCCC)C=C3)C4=CC5=C(C(C6=C5SC7=C6SC(/C=C8C(C(C=CC(C)=C9)=C9C\8=C(C#N)\C#N)=O)=C7)(C%10=CC=C(CCCCCC)C=C%10)C%11=CC=C(CCCCCC)C=C%11)C=C4C%12=C2C(SC(/C=C%13C(C(C=CC(C)=C%14)=C%14C\%13=C(C#N)/C#N)=O)=C%15)=C%15S%12,1456.01,PBDB-T,5.33,3.53,1.8,CC(SC1=C2C3=CC=C(CC(CC)CCCC)S3)=CC1=C(C4=CC=C(CC(CC)CCCC)S4)C5=C2C=C(S5)C6=CC=C(C7=C8C(C(C9=C(CC(CC)CCCC)SC(CC(CC)CCCC)=C9C8=O)=O)=C(C%10=CC=C(C)S%10)S7)S6,43.5,29,1.5,1,1,CB,DIO,100,100,,,
1200,523,2019,9.74,9.62,14.25,0.6638,1.03,O-IDTBR,5.45,3.9,1.55,O=C(/C(S1)=C/C(C2=NSN=C32)=CC=C3C(S4)=CC5=C4C6=CC(C(CCCCCCCC)(CCCCCCCC)C7=C8SC(C9=CC=C(/C=C%10SC(N(CC)C\%10=O)=S)C%11=NSN=C9%11)=C7)=C8C=C6C5(CCCCCCCC)CCCCCCCC)N(CC)C1=S,1326.02,PTB7-Th,5.24,3.66,1.58,O=C(OCC(CC)CCCC)C1=C(F)C2=C(C)SC(C3=CC4=C(C(C5=CC=C(CC(CC)CCCC)S5)=C(C=C(C)S6)C6=C4C7=CC=C(CC(CC)CCCC)S7)S3)=C2S1,124,72.9,1.700960219,1,1.5,DCB,CN,120,,,,
1201,523,2019,6.99,6.72,10.8,0.6479,1,O-IDTBR,5.45,3.9,1.55,O=C(/C(S1)=C/C(C2=NSN=C32)=CC=C3C(S4)=CC5=C4C6=CC(C(CCCCCCCC)(CCCCCCCC)C7=C8SC(C9=CC=C(/C=C%10SC(N(CC)C\%10=O)=S)C%11=NSN=C9%11)=C7)=C8C=C6C5(CCCCCCCC)CCCCCCCC)N(CC)C1=S,1326.02,PBDB-T,5.28,3.48,1.8,CC(SC1=C2C3=CC=C(CC(CC)CCCC)S3)=CC1=C(C4=CC=C(CC(CC)CCCC)S4)C5=C2C=C(S5)C6=CC=C(C7=C8C(C(C9=C(CC(CC)CCCC)SC(CC(CC)CCCC)=C9C8=O)=O)=C(C%10=CC=C(C)S%10)S7)S6,117,58.5,2,1,1.5,DCB,CN,120,,,,
1202,524,2019,10.9,10.9,16.96,0.64,0.925,ITIC,5.6,4.03,1.57,CCCCCCC(C=C1)=CC=C1C2(C3=CC=C(CCCCCC)C=C3)C4=CC5=C(C(C6=C5SC7=C6SC(/C=C8C(C(C=CC=C9)=C9C\8=C(C#N)\C#N)=O)=C7)(C%10=CC=C(CCCCCC)C=C%10)C%11=CC=C(CCCCCC)C=C%11)C=C4C%12=C2C(SC(/C=C%13C(C(C=CC=C%14)=C%14C\%13=C(C#N)/C#N)=O)=C%15)=C%15S%12,1427.96,J71,5.2,3.23,1.97,CCC[Si](CCC)(C1=CC=C(C(C2=C3C=C(C4=CC=C(C5=C(F)C(F)=C(C6=CC=C(C)S6)C7=NN(CC(CCCCCC)CCCCCCCC)N=C57)S4)S2)=C8C(SC(C)=C8)=C3C9=CC=C([Si](CCC)(CCC)CCC)S9)S1)CCC,47,23.5,2,1,1,CF,NA,NA,,,,
1203,525,2019,1.4,1.33,3.99,0.343,1.02,ITIC,5.74,4.01,1.73,CCCCCCC(C=C1)=CC=C1C2(C3=CC=C(CCCCCC)C=C3)C4=CC5=C(C(C6=C5SC7=C6SC(/C=C8C(C(C=CC=C9)=C9C\8=C(C#N)\C#N)=O)=C7)(C%10=CC=C(CCCCCC)C=C%10)C%11=CC=C(CCCCCC)C=C%11)C=C4C%12=C2C(SC(/C=C%13C(C(C=CC=C%14)=C%14C\%13=C(C#N)/C#N)=O)=C%15)=C%15S%12,1427.96,PBDTTFTQ-DO,5.37,3.03,2.34,CC(SC1=C2C3=CC(CCCCCCCC)=C(CCCCCCCC)S3)=CC1=C(C4=CC(CCCCC5)=C(CCCCCCCC)S4)C6=C2C=C(S6)C7=CC=C(C(C(F)=C8)=C9C(N=C(C(C%10=CC(OCCC5(CC)CCCCC)=CC=C%10)=N9)C%11=CC=CC(OCCCCCCCC)=C%11)=C8C%12=CC=C(C)S%12)S7,863.63,135.95,6.352556087,1,2.5,DCB,NA,NA,90,,,
1204,525,2019,2.85,2.82,6.49,0.468,0.94,ITIC,5.74,4.01,1.73,CCCCCCC(C=C1)=CC=C1C2(C3=CC=C(CCCCCC)C=C3)C4=CC5=C(C(C6=C5SC7=C6SC(/C=C8C(C(C=CC=C9)=C9C\8=C(C#N)\C#N)=O)=C7)(C%10=CC=C(CCCCCC)C=C%10)C%11=CC=C(CCCCCC)C=C%11)C=C4C%12=C2C(SC(/C=C%13C(C(C=CC=C%14)=C%14C\%13=C(C#N)/C#N)=O)=C%15)=C%15S%12,1427.96,PBDTTFTQ-DO,5.37,3.03,2.34,CC(SC1=C2C3=CC(CCCCCCCC)=C(CCCCCCCC)S3)=CC1=C(C4=CC(CCCCC5)=C(CCCCCCCC)S4)C6=C2C=C(S6)C7=CC=C(C(C(F)=C8)=C9C(N=C(C(C%10=CC(OCCC5(CC)CCCCC)=CC=C%10)=N9)C%11=CC=CC(OCCCCCCCC)=C%11)=C8C%12=CC=C(C)S%12)S7,863.63,135.95,6.352556087,1,2.5,DCB,NA,170,90,,,
1205,525,2019,2.76,2.71,6.65,0.424,0.98,ITIC-Th,5.66,3.93,1.73,O=C(C(C=CC=C1)=C1C/2=C(C#N)\C#N)C2=C/C3=CC(S4)=C(S3)C5=C4C6=CC(C(C7=C8SC9=C7SC(/C=C%10C(C(C=CC=C%11)=C%11C\%10=C(C#N)\C#N)=O)=C9)(C%12=CC=C(CCCCCC)S%12)C%13=CC=C(CCCCCC)S%13)=C8C=C6C(C%14=CSC(CCCCCC)=C%14)5C%15=CC=C(CCCCCC)S%15,1452.04,PBDTTFTQ-DO,5.37,3.03,2.34,CC(SC1=C2C3=CC(CCCCCCCC)=C(CCCCCCCC)S3)=CC1=C(C4=CC(CCCCC5)=C(CCCCCCCC)S4)C6=C2C=C(S6)C7=CC=C(C(C(F)=C8)=C9C(N=C(C(C%10=CC(OCCC5(CC)CCCCC)=CC=C%10)=N9)C%11=CC=CC(OCCCCCCCC)=C%11)=C8C%12=CC=C(C)S%12)S7,863.63,135.95,6.352556087,1,2.5,DCB,NA,NA,90,,,
1206,525,2019,7.81,7.75,15.14,0.586,0.88,ITIC-Th,5.66,3.93,1.73,O=C(C(C=CC=C1)=C1C/2=C(C#N)\C#N)C2=C/C3=CC(S4)=C(S3)C5=C4C6=CC(C(C7=C8SC9=C7SC(/C=C%10C(C(C=CC=C%11)=C%11C\%10=C(C#N)\C#N)=O)=C9)(C%12=CC=C(CCCCCC)S%12)C%13=CC=C(CCCCCC)S%13)=C8C=C6C(C%14=CSC(CCCCCC)=C%14)5C%15=CC=C(CCCCCC)S%15,1452.04,PBDTTFTQ-DO,5.37,3.03,2.34,CC(SC1=C2C3=CC(CCCCCCCC)=C(CCCCCCCC)S3)=CC1=C(C4=CC(CCCCC5)=C(CCCCCCCC)S4)C6=C2C=C(S6)C7=CC=C(C(C(F)=C8)=C9C(N=C(C(C%10=CC(OCCC5(CC)CCCCC)=CC=C%10)=N9)C%11=CC=CC(OCCCCCCCC)=C%11)=C8C%12=CC=C(C)S%12)S7,863.63,135.95,6.352556087,1,2.5,DCB,NA,170,90,,,
1207,525,2019,5.76,5.64,10.56,0.62,0.88,ITIC-Th1,5.48,3.83,1.65,O=C(C/1=C\C2=CC(SC3=C4C(C5=CSC(CCCCCC)=C5)(C6=CC=C(S6)CCCCCC)C7=CC8=C(C(C9=CC=C(S9)CCCCCC)(C%10=CC=C(S%10)CCCCCC)C%11=C8SC%12=C%11SC(/C=C%13C(C%14=C(C\%13=C(C#N)/C#N)C=C(F)C=C%14)=O)=C%12)C=C37)=C4S2)C%15=C(C1=C(C#N)/C#N)C=CC(F)=C%15,1488.02,PBDTTFTQ-DO,5.37,3.03,2.34,CC(SC1=C2C3=CC(CCCCCCCC)=C(CCCCCCCC)S3)=CC1=C(C4=CC(CCCCC5)=C(CCCCCCCC)S4)C6=C2C=C(S6)C7=CC=C(C(C(F)=C8)=C9C(N=C(C(C%10=CC(OCCC5(CC)CCCCC)=CC=C%10)=N9)C%11=CC=CC(OCCCCCCCC)=C%11)=C8C%12=CC=C(C)S%12)S7,863.63,135.95,6.352556087,1,2.5,DCB,NA,NA,90,,,
1208,525,2019,6.92,6.83,13.35,0.617,0.84,ITIC-Th1,5.48,3.83,1.65,O=C(C/1=C\C2=CC(SC3=C4C(C5=CSC(CCCCCC)=C5)(C6=CC=C(S6)CCCCCC)C7=CC8=C(C(C9=CC=C(S9)CCCCCC)(C%10=CC=C(S%10)CCCCCC)C%11=C8SC%12=C%11SC(/C=C%13C(C%14=C(C\%13=C(C#N)/C#N)C=C(F)C=C%14)=O)=C%12)C=C37)=C4S2)C%15=C(C1=C(C#N)/C#N)C=CC(F)=C%15,1488.02,PBDTTFTQ-DO,5.37,3.03,2.34,CC(SC1=C2C3=CC(CCCCCCCC)=C(CCCCCCCC)S3)=CC1=C(C4=CC(CCCCC5)=C(CCCCCCCC)S4)C6=C2C=C(S6)C7=CC=C(C(C(F)=C8)=C9C(N=C(C(C%10=CC(OCCC5(CC)CCCCC)=CC=C%10)=N9)C%11=CC=CC(OCCCCCCCC)=C%11)=C8C%12=CC=C(C)S%12)S7,863.63,135.95,6.352556087,1,2.5,DCB,NA,170,90,,,
1209,526,2019,6.95,6.83,15.24,0.59,0.76,TPDI2,5.89,3.8,2.09,O=C(N(C(CCCCCC)CCCCCC)C1=O)C2=CC=C(C3=C4C5=CC1C32)C6=C(C7=CC(C(C=C8C(N(C(CCCCCC)CCCCCC)C9=O)=O)=C%10C%11=C8C9=CC(C%12=C%13C%14=CC%15C%16C%17=C%14C%18=C%12C=C(C(N%19C(CCCCCC)CCCCCC)=O)C%20=C%18C(C%17=CC=C%16C(N(C(CCCCCC)CCCCCC)C%15=O)=O)=CC=C%20C%19=O)=C%11C%21=C%13C=C(C%22=O)C%23C%21=C%10C=CC%23C(N%22C(CCCCCC)CCCCCC)=O)=CC(C%24=CC%25C%26C%27=C%24C%28=CC=C(C(N%29C(CCCCCC)CCCCCC)=O)C%30=C%28C(C%27=C%31C=C%26C(N(C(CCCCCC)CCCCCC)C%25=O)=O)=C(C%32=C%31C%33=CC%34C%35C%36=C%33C%37=C%32C=C(C(N%38C(CCCCCC)CCCCCC)=O)C%39=C%37C(C%36=CC=C%35C(N(C(CCCCCC)CCCCCC)C%34=O)=O)=CC=C%39C%38=O)C=C%30C%29=O)=C7)C=C%40C%41=C6C4=C(C%42=C5C%43=C(C%44=C%45C=CC%46C%44C(C(N(C(CCCCCC)CCCCCC)C%46=O)=O)=C%43)C%47=C%42C=C%48C%49=C%47C%45=CC=C%49C(N(C(CCCCCC)CCCCCC)C%48=O)=O)C=C%41C(N(C(CCCCCC)CCCCCC)C%40=O)=O,4674.47,PTB7-Th,5.2,3.6,1.6,O=C(OCC(CC)CCCC)C1=C(F)C2=C(C)SC(C3=CC4=C(C(C5=CC=C(CC(CC)CCCC)S5)=C(C=C(C)S6)C6=C4C7=CC=C(CC(CC)CCCC)S7)S3)=C2S1,124,72.9,1.700960219,1,1,OX,NA,80,,,,
1210,526,2019,7.16,7.03,14.52,0.612,0.792,ITIC,5.51,3.78,1.73,CCCCCCC(C=C1)=CC=C1C2(C3=CC=C(CCCCCC)C=C3)C4=CC5=C(C(C6=C5SC7=C6SC(/C=C8C(C(C=CC=C9)=C9C\8=C(C#N)\C#N)=O)=C7)(C%10=CC=C(CCCCCC)C=C%10)C%11=CC=C(CCCCCC)C=C%11)C=C4C%12=C2C(SC(/C=C%13C(C(C=CC=C%14)=C%14C\%13=C(C#N)/C#N)=O)=C%15)=C%15S%12,1427.96,PTB7-Th,5.2,3.6,1.6,O=C(OCC(CC)CCCC)C1=C(F)C2=C(C)SC(C3=CC4=C(C(C5=CC=C(CC(CC)CCCC)S5)=C(C=C(C)S6)C6=C4C7=CC=C(CC(CC)CCCC)S7)S3)=C2S1,124,72.9,1.700960219,1,1,OX,NA,80,,,,
1211,527,2019,11.37,11.17,19.76,0.6257,0.92,Y10,5.56,3.76,1.8,O=C(C1=CSC=C1C/2=C(C#N)/C#N)C2=C/C3=C(CCCCCCCCCCC)C(SC4=C5N(CC(CC)CCCC)C6=C4C7=NSN=C7C8=C6N(CC(CC)CCCC)C9=C8SC%10=C9SC(/C=C%11/C(C%12=CSC=C%12C%11=O)=C(C#N)\C#N)=C%10CCCCCCCCCCC)=C5S3,1392.02,J11,5.48,3.76,1.72,CC1=CC(C(S1)=C2C3=CC(Cl)=C(CCCCCCCC)S3)=C(C4=C2C=C(C5=CC=C(C6=C(F)C(F)=C(C7=CC=C(C)S7)C8=NN(CC(CCCCCCCC)CCCCCCCC)N=C68)S5)S4)C9=CC(Cl)=C(CCCCCCCC)S9,50,25,2,1,1.2,CF,NA,NA,,,,
1212,527,2019,13.46,13.26,21.21,0.7155,0.89,Y10,5.56,3.76,1.8,O=C(C1=CSC=C1C/2=C(C#N)/C#N)C2=C/C3=C(CCCCCCCCCCC)C(SC4=C5N(CC(CC)CCCC)C6=C4C7=NSN=C7C8=C6N(CC(CC)CCCC)C9=C8SC%10=C9SC(/C=C%11/C(C%12=CSC=C%12C%11=O)=C(C#N)\C#N)=C%10CCCCCCCCCCC)=C5S3,1392.02,J11,5.48,3.76,1.72,CC1=CC(C(S1)=C2C3=CC(Cl)=C(CCCCCCCC)S3)=C(C4=C2C=C(C5=CC=C(C6=C(F)C(F)=C(C7=CC=C(C)S7)C8=NN(CC(CCCCCCCC)CCCCCCCC)N=C68)S5)S4)C9=CC(Cl)=C(CCCCCCCC)S9,50,25,2,1,1.2,CF,CN,100,,,,
1213,528,2019,2.73,2.62,7.44,0.371,0.95,ITIC,5.61,4.02,1.59,CCCCCCC(C=C1)=CC=C1C2(C3=CC=C(CCCCCC)C=C3)C4=CC5=C(C(C6=C5SC7=C6SC(/C=C8C(C(C=CC=C9)=C9C\8=C(C#N)\C#N)=O)=C7)(C%10=CC=C(CCCCCC)C=C%10)C%11=CC=C(CCCCCC)C=C%11)C=C4C%12=C2C(SC(/C=C%13C(C(C=CC=C%14)=C%14C\%13=C(C#N)/C#N)=O)=C%15)=C%15S%12,1427.96,PTPTI-T-FBT,5.59,3.74,1.85,CC1=CC(N(CC(CCCCCCCC)CCCCCCCCCC)C2=O)C(C(C2=C3)=CC4=C3C5=C(N(CC(CCCCCCCC)CCCCCCCCCC)C4=O)C=C(C6=C(CCCCCC)C=C(C7=C(F)C(F)=C(C8=CC(CCCCCC)=C(C)S8)C9=NSN=C79)S6)S5)S1,89,31.9,2.789968652,1,1,CF,NA,130,99,,,
1214,528,2019,6.03,5.82,14.8,0.416,0.98,ITIC,5.61,4.02,1.59,CCCCCCC(C=C1)=CC=C1C2(C3=CC=C(CCCCCC)C=C3)C4=CC5=C(C(C6=C5SC7=C6SC(/C=C8C(C(C=CC=C9)=C9C\8=C(C#N)\C#N)=O)=C7)(C%10=CC=C(CCCCCC)C=C%10)C%11=CC=C(CCCCCC)C=C%11)C=C4C%12=C2C(SC(/C=C%13C(C(C=CC=C%14)=C%14C\%13=C(C#N)/C#N)=O)=C%15)=C%15S%12,1427.96,PTPTI-T-BDD,5.55,3.85,1.7,CC1=CC(N(CC(CCCCCCCC)CCCCCCCCCC)C2=O)C(C(C2=C3)=CC4=C3C5=C(N(CC(CCCCCCCC)CCCCCCCCCC)C4=O)C=C(C6=CC=C(C(S7)=C(C(C8=C(CC(CC)CCCC)SC(CC(CC)CCCC)=C8C9=O)=O)C9=C7C%10=CC=C(C)S%10)S6)S5)S1,34.2,12.7,2.692913386,1,1,CF,NA,130,104,,,
1215,529,2019,6.87,6.65,11.18,0.625,0.93,DBTIC,5.45,3.73,1.72,CCCCCCC1=CC=C(C2(C3=CC=C(CCCCCC)C=C3)C4=C(SC(/C=C5C(C(C=CC=C6)=C6C\5=C(C#N)\C#N)=O)=C4)C7=C2C8=C(C9=C(S8)C(C=C%10)=C(S9)C%11=C%10C(SC(/C=C%12C(C(C=CC=C%13)=C%13C\%12=C(C#N)/C#N)=O)=C%14)=C%14C%11(C%15=CC=C(CCCCCC)C=C%15)C%16=CC=C(CCCCCC)C=C%16)C=C7)C=C1,1478.02,J52,5.16,2.79,2.37,CC1=CC(C(S1)=C2C3=CC=C(CC(CC)CCCC)S3)=C(C4=C2C=C(C5=CC=C(C6=C(F)C(F)=C(C7=CC=C(C)S7)C8=NN(CC(CCCCCC)CCCCCCCC)N=C68)S5)S4)C9=CC=C(CC(CC)CCCC)S9,170,53.1,3.201506591,1,1,CB,NA,NA,,,,
1216,529,2019,8.64,8.33,13.55,0.661,0.93,DBTIC,5.45,3.73,1.72,CCCCCCC1=CC=C(C2(C3=CC=C(CCCCCC)C=C3)C4=C(SC(/C=C5C(C(C=CC=C6)=C6C\5=C(C#N)\C#N)=O)=C4)C7=C2C8=C(C9=C(S8)C(C=C%10)=C(S9)C%11=C%10C(SC(/C=C%12C(C(C=CC=C%13)=C%13C\%12=C(C#N)/C#N)=O)=C%14)=C%14C%11(C%15=CC=C(CCCCCC)C=C%15)C%16=CC=C(CCCCCC)C=C%16)C=C7)C=C1,1478.02,J52,5.16,2.79,2.37,CC1=CC(C(S1)=C2C3=CC=C(CC(CC)CCCC)S3)=C(C4=C2C=C(C5=CC=C(C6=C(F)C(F)=C(C7=CC=C(C)S7)C8=NN(CC(CCCCCC)CCCCCCCC)N=C68)S5)S4)C9=CC=C(CC(CC)CCCC)S9,170,53.1,3.201506591,1,1,CB,NA,NA,,,,
1217,530,2019,3.92,3.8,10.76,0.4,0.9,ITIC,5.51,3.71,1.8,CCCCCCC(C=C1)=CC=C1C2(C3=CC=C(CCCCCC)C=C3)C4=CC5=C(C(C6=C5SC7=C6SC(/C=C8C(C(C=CC=C9)=C9C\8=C(C#N)\C#N)=O)=C7)(C%10=CC=C(CCCCCC)C=C%10)C%11=CC=C(CCCCCC)C=C%11)C=C4C%12=C2C(SC(/C=C%13C(C(C=CC=C%14)=C%14C\%13=C(C#N)/C#N)=O)=C%15)=C%15S%12,1427.96,PBDT-TPD,5.36,3.06,2.3,CCCCCCCCN1C(C2=C(SC(C3=CC4=C(S3)C(OCC(CC)CCCC)=C5C=C(SC5=C4OCC(CC)CCCC)C)=C2C1=O)C)=O,34.524,13.7,2.52,1,1,CF,NA,NA,75,,,