ID,Ref,year,PCE_max(%),PCE_ave(%),Jsc(mA/cm2),FF,Voc(V),Nickname(n),-HOMO_n(eV),-LUMO_n(eV),Eg_n(eV),n(SMILES),M (g/mol),Nickname(p),-HOMO_p(eV),-LUMO_p(eV),Eg_p(eV),p(SMILES),Mw (kg/mol),Mn(kg/mol),PDI,p/n ratio (p),p/n ratio (n),Solvent,Additive,TA (oC),thick (nm),,Journal,DOI
855,392,2018,10.46,10.32,22.12,0.6428,0.736,IEICO-4F,5.44,4.19,1.25,CCCCCCC(C=C1)=CC=C1C(C2=C3SC(C4=C(OCC(CC)CCCC)C=C(/C=C5C(C(C=C(F)C(F)=C6)=C6C\5=C(C#N)\C#N)=O)S4)=C2)(C7=CC=C(CCCCCC)C=C7)C8=C3C=C(C(C9=C%10SC(C(S%11)=C(C=C%11/C=C%12/C(C(C=C%13F)=C(C%12=O)C=C%13F)=C(C#N)/C#N)OCC(CCCC)CC)=C9)(C%14=CC=C(CCCCCC)C=C%14)C%15=CC=C(CCCCCC)C=C%15)C%10=C8,1808.42,PTB7-Th,5.22,3.4,1.82,O=C(OCC(CC)CCCC)C1=C(F)C2=C(C)SC(C3=CC4=C(C(C5=CC=C(CC(CC)CCCC)S5)=C(C=C(C)S6)C6=C4C7=CC=C(CC(CC)CCCC)S7)S3)=C2S1,124,72.9,1.700960219,1,1.5,CB,DIO,NA,,,,
856,393,2019,3.74,3.61,14.94,0.4653,0.54,IT-M,5.58,3.98,1.6,CCCCCCC(C=C1)=CC=C1C2(C3=CC=C(CCCCCC)C=C3)C4=CC5=C(C(C6=C5SC7=C6SC(/C=C8C(C(C=CC(C)=C9)=C9C\8=C(C#N)\C#N)=O)=C7)(C%10=CC=C(CCCCCC)C=C%10)C%11=CC=C(CCCCCC)C=C%11)C=C4C%12=C2C(SC(/C=C%13C(C(C=CC(C)=C%14)=C%14C\%13=C(C#N)/C#N)=O)=C%15)=C%15S%12,1456.01,PBDB-T,5.31,3.5,1.81,CC(SC1=C2C3=CC=C(CC(CC)CCCC)S3)=CC1=C(C4=CC=C(CC(CC)CCCC)S4)C5=C2C=C(S5)C6=CC=C(C7=C8C(C(C9=C(CC(CC)CCCC)SC(CC(CC)CCCC)=C9C8=O)=O)=C(C%10=CC=C(C)S%10)S7)S6,117,58.5,2,1,1,CF,DIO,120,100,,,
857,394,2019,11.15,10.66,16.59,0.675,0.952,IT-M,5.51,3.91,1.6,CCCCCCC(C=C1)=CC=C1C2(C3=CC=C(CCCCCC)C=C3)C4=CC5=C(C(C6=C5SC7=C6SC(/C=C8C(C(C=CC(C)=C9)=C9C\8=C(C#N)\C#N)=O)=C7)(C%10=CC=C(CCCCCC)C=C%10)C%11=CC=C(CCCCCC)C=C%11)C=C4C%12=C2C(SC(/C=C%13C(C(C=CC(C)=C%14)=C%14C\%13=C(C#N)/C#N)=O)=C%15)=C%15S%12,1456.01,PBDB-T,5.21,3.41,1.8,CC(SC1=C2C3=CC=C(CC(CC)CCCC)S3)=CC1=C(C4=CC=C(CC(CC)CCCC)S4)C5=C2C=C(S5)C6=CC=C(C7=C8C(C(C9=C(CC(CC)CCCC)SC(CC(CC)CCCC)=C9C8=O)=O)=C(C%10=CC=C(C)S%10)S7)S6,117,58.5,2,1,1,CB,DIO,100,100,,,
858,395,2019,11.73,11.45,17.53,0.712,0.94,m-ITIC,5.53,3.95,1.58,O=C(C(C=CC=C1)=C1C/2=C(C#N)\C#N)C2=C/C3=CC(S4)=C(S3)C5=C4C6=CC(C(C7=C8SC9=C7SC(/C=C%10C(C(C=CC=C%11)=C%11C\%10=C(C#N)\C#N)=O)=C9)(C%12=CC=CC(CCCCCC)=C%12)C%13=CC(CCCCCC)=CC=C%13)=C8C=C6C(C%14=CC(CCCCCC)=CC=C%14)5C%15=CC=CC(CCCCCC)=C%15,1427.96,J71,5.39,3.24,2.15,CCC[Si](CCC)(C1=CC=C(C(C2=C3C=C(C4=CC=C(C5=C(F)C(F)=C(C6=CC=C(C)S6)C7=NN(CC(CCCCCC)CCCCCCCC)N=C57)S4)S2)=C8C(SC(C)=C8)=C3C9=CC=C([Si](CCC)(CCC)CCC)S9)S1)CCC,47,23.5,2,1,1.2,CF,NA,150,,,,
859,395,2019,11.41,11.27,17.11,0.6947,0.96,m-ITIC,5.53,3.95,1.58,O=C(C(C=CC=C1)=C1C/2=C(C#N)\C#N)C2=C/C3=CC(S4)=C(S3)C5=C4C6=CC(C(C7=C8SC9=C7SC(/C=C%10C(C(C=CC=C%11)=C%11C\%10=C(C#N)\C#N)=O)=C9)(C%12=CC=CC(CCCCCC)=C%12)C%13=CC(CCCCCC)=CC=C%13)=C8C=C6C(C%14=CC(CCCCCC)=CC=C%14)5C%15=CC=CC(CCCCCC)=C%15,1427.96,J75,5.49,3.66,1.83,CC(SC1=C2C3=CC=C([Si](CCC)(CCC)CCC)[Se]3)=CC1=C(C4=CC=C([Si](CCC)(CCC)CCC)[Se]4)C5=C2C=C(C6=CC=C(C7=C(F)C(F)=C(C8=CC=C(C)S8)C9=NN(CC(CCCCCCCC)CCCCCC)N=C97)S6)S5,42.036,22.6,1.86,1,1.2,CF,NA,150,,,,
860,395,2019,11.04,10.81,17.04,0.7117,0.91,m-ITIC,5.53,3.95,1.58,O=C(C(C=CC=C1)=C1C/2=C(C#N)\C#N)C2=C/C3=CC(S4)=C(S3)C5=C4C6=CC(C(C7=C8SC9=C7SC(/C=C%10C(C(C=CC=C%11)=C%11C\%10=C(C#N)\C#N)=O)=C9)(C%12=CC=CC(CCCCCC)=C%12)C%13=CC(CCCCCC)=CC=C%13)=C8C=C6C(C%14=CC(CCCCCC)=CC=C%14)5C%15=CC=CC(CCCCCC)=C%15,1427.96,J76,5.41,3.66,1.75,CC(SC1=C2C3=CC=C([Si](CCC)(CCC)CCC)S3)=CC1=C(C4=CC=C([Si](CCC)(CCC)CCC)S4)C5=C2C=C(C6=CC=C(C7=C(F)C(F)=C(C8=CC=C(C)[Se]8)C9=NN(CC(CCCCCCCC)CCCCCC)N=C97)[Se]6)S5,27.054,16.2,1.67,1,1.2,CF,NA,150,,,,
861,396,2019,6.4,6.3,10.5,0.58,1.04,tPDI2N-EH,5.9,3.7,2.2,O=C(N(C(CC)CC)C1=O)C2=CC=C3C4=C(C5=C6C=C(C(N(C(CC)CC)C7=O)=O)C8=C7C=C(C9=CC%10=C%11C(C%12=C(N%13CC(CC)CCCC)C=C%11C(N(C(CC)CC)C%10=O)=O)=C9C%14=CC=C(C(N(C(CC)CC)C%15=O)=O)C%16=C%15C=C%13C%12=C%14%16)C3=C58)C(N6CC(CCCC)CC)=CC1=C42,1309.66,QX1,5.4,3.1,2.3,CC(SC1=C2C3=CC=C(CC(CC)CCCC)S3)=CC1=C(C4=CC=C(CC(CC)CCCC)S4)C5=C2C=C(C6=CC=C(C7=C(F)C(F)=C(C8=CC=C(C)S8)C9=C7N=C(C%10=CC(F)=C(CC(CC)CCCC)S%10)C(C%11=CC(F)=C(CC(CC)CCCC)S%11)=N9)S6)S5,50,25,2,1,1,TL,DPE,NA,,,,
862,396,2019,6.4,6.4,11.75,0.53,1.04,tPDI2N-EH,5.9,3.7,2.2,O=C(N(C(CC)CC)C1=O)C2=CC=C3C4=C(C5=C6C=C(C(N(C(CC)CC)C7=O)=O)C8=C7C=C(C9=CC%10=C%11C(C%12=C(N%13CC(CC)CCCC)C=C%11C(N(C(CC)CC)C%10=O)=O)=C9C%14=CC=C(C(N(C(CC)CC)C%15=O)=O)C%16=C%15C=C%13C%12=C%14%16)C3=C58)C(N6CC(CCCC)CC)=CC1=C42,1309.66,PPDT2FBT,5.45,3.69,1.76,CC(S1)=CC=C1C2=C(OCC(CCCCCC)CCCCCCCC)C=C(C3=CC=C(C4=C(F)C(F)=C(C)C5=NSN=C45)S3)C(OCC(CCCCCCCC)CCCCCC)=C2,119.28,42.6,2.8,1,1,OX,DPE,NA,,,,
863,396,2019,7.2,7.1,13.32,0.59,0.91,ITIC-M,5.5,3.9,1.6,CCCCCCC(C=C1)=CC=C1C2(C3=CC=C(CCCCCC)C=C3)C4=CC5=C(C(C6=C5SC7=C6SC(/C=C8C(C(C=CC(C)=C9)=C9C\8=C(C#N)\C#N)=O)=C7)(C%10=CC=C(CCCCCC)C=C%10)C%11=CC=C(CCCCCC)C=C%11)C=C4C%12=C2C(SC(/C=C%13C(C(C=CC(C)=C%14)=C%14C\%13=C(C#N)/C#N)=O)=C%15)=C%15S%12,1456.01,PPDT2FBT,5.45,3.69,1.76,CC(S1)=CC=C1C2=C(OCC(CCCCCC)CCCCCCCC)C=C(C3=CC=C(C4=C(F)C(F)=C(C)C5=NSN=C45)S3)C(OCC(CCCCCCCC)CCCCCC)=C2,119.28,42.6,2.8,1,1,OX,DPE,NA,,,,
864,397,2019,5.76,5.34,11.47,0.55,0.92,ITIC,5.63,4.05,1.58,CCCCCCC(C=C1)=CC=C1C2(C3=CC=C(CCCCCC)C=C3)C4=CC5=C(C(C6=C5SC7=C6SC(/C=C8C(C(C=CC=C9)=C9C\8=C(C#N)\C#N)=O)=C7)(C%10=CC=C(CCCCCC)C=C%10)C%11=CC=C(CCCCCC)C=C%11)C=C4C%12=C2C(SC(/C=C%13C(C(C=CC=C%14)=C%14C\%13=C(C#N)/C#N)=O)=C%15)=C%15S%12,1427.96,PBDTT-8ttTPD-L,5.23,3.35,1.88,CC(SC1=C2C3=CC=C(CC(CC)CCCC)S3)=CC1=C(C4=CC=C(CC(CC)CCCC)S4)C5=C2C=C(C6=C(CCCCCCCC)C(SC(C7=C(C(N(CC(CCCCCC)CCCCCCCC)C8=O)=O)C8=C(C9=CC(SC(C)=C%10CCCCCCCC)=C%10S9)S7)=C%11)=C%11S6)S5,107,18,5.944444444,1,2,CB,NA,160,,,,
865,397,2019,8.27,7.9,14.79,0.6,0.93,ITIC,5.63,4.05,1.58,CCCCCCC(C=C1)=CC=C1C2(C3=CC=C(CCCCCC)C=C3)C4=CC5=C(C(C6=C5SC7=C6SC(/C=C8C(C(C=CC=C9)=C9C\8=C(C#N)\C#N)=O)=C7)(C%10=CC=C(CCCCCC)C=C%10)C%11=CC=C(CCCCCC)C=C%11)C=C4C%12=C2C(SC(/C=C%13C(C(C=CC=C%14)=C%14C\%13=C(C#N)/C#N)=O)=C%15)=C%15S%12,1427.96,PBDTT-8ttTPD-M,5.23,3.37,1.86,CC(SC1=C2C3=CC=C(CC(CC)CCCC)S3)=CC1=C(C4=CC=C(CC(CC)CCCC)S4)C5=C2C=C(C6=C(CCCCCCCC)C(SC(C7=C(C(N(CC(CCCCCC)CCCCCCCC)C8=O)=O)C8=C(C9=CC(SC(C)=C%10CCCCCCCC)=C%10S9)S7)=C%11)=C%11S6)S5,345,40,8.625,1,2,CB,NA,160,,,,
866,397,2019,11.05,10.78,17.52,0.68,0.93,ITIC,5.63,4.05,1.58,CCCCCCC(C=C1)=CC=C1C2(C3=CC=C(CCCCCC)C=C3)C4=CC5=C(C(C6=C5SC7=C6SC(/C=C8C(C(C=CC=C9)=C9C\8=C(C#N)\C#N)=O)=C7)(C%10=CC=C(CCCCCC)C=C%10)C%11=CC=C(CCCCCC)C=C%11)C=C4C%12=C2C(SC(/C=C%13C(C(C=CC=C%14)=C%14C\%13=C(C#N)/C#N)=O)=C%15)=C%15S%12,1427.96,PBDTT-8ttTPD-H,5.23,3.37,1.86,CC(SC1=C2C3=CC=C(CC(CC)CCCC)S3)=CC1=C(C4=CC=C(CC(CC)CCCC)S4)C5=C2C=C(C6=C(CCCCCCCC)C(SC(C7=C(C(N(CC(CCCCCC)CCCCCCCC)C8=O)=O)C8=C(C9=CC(SC(C)=C%10CCCCCCCC)=C%10S9)S7)=C%11)=C%11S6)S5,505,90,5.611111111,1,2,CB,NA,160,,,,
867,398,2019,9.19,9.02,15.85,0.64,0.9,ITIC,5.51,3.78,1.73,CCCCCCC(C=C1)=CC=C1C2(C3=CC=C(CCCCCC)C=C3)C4=CC5=C(C(C6=C5SC7=C6SC(/C=C8C(C(C=CC=C9)=C9C\8=C(C#N)\C#N)=O)=C7)(C%10=CC=C(CCCCCC)C=C%10)C%11=CC=C(CCCCCC)C=C%11)C=C4C%12=C2C(SC(/C=C%13C(C(C=CC=C%14)=C%14C\%13=C(C#N)/C#N)=O)=C%15)=C%15S%12,1427.96,PBDB-T,5.33,2.92,2.41,CC(SC1=C2C3=CC=C(CC(CC)CCCC)S3)=CC1=C(C4=CC=C(CC(CC)CCCC)S4)C5=C2C=C(S5)C6=CC=C(C7=C8C(C(C9=C(CC(CC)CCCC)SC(CC(CC)CCCC)=C9C8=O)=O)=C(C%10=CC=C(C)S%10)S7)S6,117,58.5,2,1,1,CB,DIO,120,,,,
868,399,2019,9.16,9.07,15.37,0.59,1.01,ICzRd2,5.59,3.88,1.71,S=C(N(C/1=O)CC)SC1=C\C(C2=NSN=C23)=CC=C3C4=CC(C5=CC6=C(C7=CC(C8=CC=C(/C=C9SC(N(C/9=O)CC)=S)C%10=NSN=C%108)=CC=C7N6CC(CC)CCCC)C=C5N%11CC(CC)CCCC)=C%11C=C4,1091.52,PPPyDPP,5.27,3.78,1.49,O=C(N(CCCCCCCCCCCCCCCC)C(C1=CC=C(C)C=N1)=C23)C2=C(C4=NC=C(C#CC5=C(C=CC6=C7C8=CC(OCC(CCCCCC)CCCC)=C(OCC(CCCCCC)CCCC)C(OCC(CCCCCC)CCCC)=C8)N6[Zn]9([N]%10=C5C=CC%10=C%11C%12=CC(OCC(CCCCCC)CCCC)=C(OCC(CCCCCC)CCCC)C(OCC(CCCCCC)CCCC)=C%12)N%13C%11=CC=C%13C(C#CC)=C%14C=CC7=[N]%149)C=C4)N(CCCCCCCCCCCCCCCC)C3=O,20.6,8.6,2.395348837,1,1.5,THF,DIO,NA,85,,,
869,400,2019,5.3,5.16,9.75,0.59,0.92,BTCDT-IC,5.75,3.87,1.88,O=C1C(C=CC=C2)=C2C(/C1=C/C(S3)=CC4=C3C5=C(C6=C(S7)C(C(C(C8=CC=C(CCCCCC)C=C8)9C%10=CC=C(CCCCCC)C=C%10)=C7C%11=C9C=C(/C=C%12/C(C%13=C(C=CC=C%13)C%12=O)=C(C#N)\C#N)S%11)=C(C%14=C6S5)SC%15=C%14C(C%16=C%15SC(/C=C%17/C(C%18=C(C=CC=C%18)C%17=O)=C(C#N)\C#N)=C%16)(C%19=CC=C(CCCCCC)C=C%19)C%20=CC=C(CCCCCC)C=C%20)C(C%21=CC=C(CCCCCC)C=C%21)4C%22=CC=C(CCCCCC)C=C%22)=C(C#N)/C#N,2102.88,J61,5.32,3.08,2.24,CC1=CC(C(S1)=C2C3=CC=C(SCCCCCCCCCCCC)S3)=C(C4=C2C=C(C5=CC=C(C6=C(F)C(F)=C(C7=CC=C(C)S7)C8=NN(CC(CCCCCC)CCCCCCCC)N=C68)S5)S4)C9=CC=C(SCCCCCCCCCCCC)S9,140,70,2,1,1,CB,CN,160,100,,,
870,400,2019,8.11,8.01,16.93,0.656,0.73,BTCDT-ICF,5.83,3.98,1.85,O=C1C(C=C(F)C(F)=C2)=C2C(/C1=C/C(S3)=CC4=C3C5=C(C6=C(S7)C(C(C(C8=CC=C(CCCCCC)C=C8)9C%10=CC=C(CCCCCC)C=C%10)=C7C%11=C9C=C(/C=C%12/C(C%13=C(C=C(F)C(F)=C%13)C%12=O)=C(C#N)\C#N)S%11)=C(C%14=C6S5)SC%15=C%14C(C%16=C%15SC(/C=C%17/C(C%18=C(C=C(F)C(F)=C%18)C%17=O)=C(C#N)\C#N)=C%16)(C%19=CC=C(CCCCCC)C=C%19)C%20=CC=C(CCCCCC)C=C%20)C(C%21=CC=C(CCCCCC)C=C%21)4C%22=CC=C(CCCCCC)C=C%22)=C(C#N)/C#N,2210.82,J61,5.32,3.08,2.24,CC1=CC(C(S1)=C2C3=CC=C(SCCCCCCCCCCCC)S3)=C(C4=C2C=C(C5=CC=C(C6=C(F)C(F)=C(C7=CC=C(C)S7)C8=NN(CC(CCCCCC)CCCCCCCC)N=C68)S5)S4)C9=CC=C(SCCCCCCCCCCCC)S9,140,70,2,1,1,CB,CN,200,100,,,
871,401,2019,3.8,3.7,7.65,0.45,1.11,IEIC,5.41,3.84,1.57,CCCCCCC(C=C1)=CC=C1C(C2=C3SC(C4=C(CC(CC)CCCC)C=C(/C=C5C(C(C=CC=C6)=C6C\5=C(C#N)\C#N)=O)S4)=C2)(C7=CC=C(CCCCCC)C=C7)C8=C3C=C(C(C9=C%10SC(C(S%11)=C(C=C%11/C=C%12/C(C%13=C(C%12=O)C=CC=C%13)=C(C#N)/C#N)CC(CC)CCCC)=C9)(C%14=CC=C(CCCCCC)C=C%14)C%15=CC=C(CCCCCC)C=C%15)C%10=C8,1704.46,PBDB-TF,5.45,3.65,1.8,CC(SC1=C2C3=CC(F)=C(CC(CC)CCCC)S3)=CC1=C(C4=CC(F)=C(CC(CC)CCCC)S4)C5=C2C=C(S5)C6=CC=C(C7=C8C(C(C9=C(CC(CC)CCCC)SC(CC(CC)CCCC)=C9C8=O)=O)=C(C%10=CC=C(C)S%10)S7)S6,38.6,19.3,2,1,1,CB,DIO,110,100,,,
872,401,2019,7.3,7.1,15.05,0.48,1.02,IEIC,5.41,3.84,1.57,CCCCCCC(C=C1)=CC=C1C(C2=C3SC(C4=C(CC(CC)CCCC)C=C(/C=C5C(C(C=CC=C6)=C6C\5=C(C#N)\C#N)=O)S4)=C2)(C7=CC=C(CCCCCC)C=C7)C8=C3C=C(C(C9=C%10SC(C(S%11)=C(C=C%11/C=C%12/C(C%13=C(C%12=O)C=CC=C%13)=C(C#N)/C#N)CC(CC)CCCC)=C9)(C%14=CC=C(CCCCCC)C=C%14)C%15=CC=C(CCCCCC)C=C%15)C%10=C8,1704.46,PBDB-T,5.28,3.48,1.8,CC(SC1=C2C3=CC=C(CC(CC)CCCC)S3)=CC1=C(C4=CC=C(CC(CC)CCCC)S4)C5=C2C=C(S5)C6=CC=C(C7=C8C(C(C9=C(CC(CC)CCCC)SC(CC(CC)CCCC)=C9C8=O)=O)=C(C%10=CC=C(C)S%10)S7)S6,117,58.5,2,1,1,CB,DIO,110,100,,,
873,401,2019,9.3,9.1,18.23,0.56,0.91,IE-4F,5.51,4.07,1.44,O=C1C2=C(C(/C1=C/C(S3)=CC(CC(CC)CCCC)=C3C4=CC(C(C(C=C5)=CC=C5CCCCCC)(C6=C7)C(C=C8)=CC=C8CCCCCC)=C(C6=CC9=C7C(SC(C%10=C(C=C(/C=C%11C(C(C=C(F)C(F)=C%12)=C%12C\%11=C(C#N)\C#N)=O)S%10)CC(CCCC)CC)=C%13)=C%13C(C(C=C%14)=CC=C%14CCCCCC)9C(C=C%15)=CC=C%15CCCCCC)S4)=C(C#N)\C#N)C=C(F)C(F)=C2,1776.43,PBDB-TF,5.45,3.65,1.8,CC(SC1=C2C3=CC(F)=C(CC(CC)CCCC)S3)=CC1=C(C4=CC(F)=C(CC(CC)CCCC)S4)C5=C2C=C(S5)C6=CC=C(C7=C8C(C(C9=C(CC(CC)CCCC)SC(CC(CC)CCCC)=C9C8=O)=O)=C(C%10=CC=C(C)S%10)S7)S6,38.6,19.3,2,1,1,CB,DIO,110,100,,,
874,401,2019,10.8,10.6,21.35,0.58,0.87,IE-4F,5.51,4.07,1.44,O=C1C2=C(C(/C1=C/C(S3)=CC(CC(CC)CCCC)=C3C4=CC(C(C(C=C5)=CC=C5CCCCCC)(C6=C7)C(C=C8)=CC=C8CCCCCC)=C(C6=CC9=C7C(SC(C%10=C(C=C(/C=C%11C(C(C=C(F)C(F)=C%12)=C%12C\%11=C(C#N)\C#N)=O)S%10)CC(CCCC)CC)=C%13)=C%13C(C(C=C%14)=CC=C%14CCCCCC)9C(C=C%15)=CC=C%15CCCCCC)S4)=C(C#N)\C#N)C=C(F)C(F)=C2,1776.43,PBDB-T,5.28,3.48,1.8,CC(SC1=C2C3=CC=C(CC(CC)CCCC)S3)=CC1=C(C4=CC=C(CC(CC)CCCC)S4)C5=C2C=C(S5)C6=CC=C(C7=C8C(C(C9=C(CC(CC)CCCC)SC(CC(CC)CCCC)=C9C8=O)=O)=C(C%10=CC=C(C)S%10)S7)S6,117,58.5,2,1,1,CB,DIO,110,100,,,
875,401,2019,9.7,9.5,17.82,0.61,0.89,IE-4Cl,5.54,4.11,1.43,O=C1C2=C(C(/C1=C/C(S3)=CC(CC(CC)CCCC)=C3C4=CC(C(C(C=C5)=CC=C5CCCCCC)(C6=C7)C(C=C8)=CC=C8CCCCCC)=C(C6=CC9=C7C(SC(C%10=C(C=C(/C=C%11C(C(C=C(Cl)C(Cl)=C%12)=C%12C\%11=C(C#N)\C#N)=O)S%10)CC(CCCC)CC)=C%13)=C%13C(C(C=C%14)=CC=C%14CCCCCC)9C(C=C%15)=CC=C%15CCCCCC)S4)=C(C#N)\C#N)C=C(Cl)C(Cl)=C2,1842.23,PBDB-TF,5.45,3.65,1.8,CC(SC1=C2C3=CC(F)=C(CC(CC)CCCC)S3)=CC1=C(C4=CC(F)=C(CC(CC)CCCC)S4)C5=C2C=C(S5)C6=CC=C(C7=C8C(C(C9=C(CC(CC)CCCC)SC(CC(CC)CCCC)=C9C8=O)=O)=C(C%10=CC=C(C)S%10)S7)S6,38.6,19.3,2,1,1,CB,DIO,110,100,,,
876,401,2019,11.1,10.9,21.49,0.6,0.86,IE-4Cl,5.54,4.11,1.43,O=C1C2=C(C(/C1=C/C(S3)=CC(CC(CC)CCCC)=C3C4=CC(C(C(C=C5)=CC=C5CCCCCC)(C6=C7)C(C=C8)=CC=C8CCCCCC)=C(C6=CC9=C7C(SC(C%10=C(C=C(/C=C%11C(C(C=C(Cl)C(Cl)=C%12)=C%12C\%11=C(C#N)\C#N)=O)S%10)CC(CCCC)CC)=C%13)=C%13C(C(C=C%14)=CC=C%14CCCCCC)9C(C=C%15)=CC=C%15CCCCCC)S4)=C(C#N)\C#N)C=C(Cl)C(Cl)=C2,1842.23,PBDB-T,5.28,3.48,1.8,CC(SC1=C2C3=CC=C(CC(CC)CCCC)S3)=CC1=C(C4=CC=C(CC(CC)CCCC)S4)C5=C2C=C(S5)C6=CC=C(C7=C8C(C(C9=C(CC(CC)CCCC)SC(CC(CC)CCCC)=C9C8=O)=O)=C(C%10=CC=C(C)S%10)S7)S6,117,58.5,2,1,1,CB,DIO,110,100,,,
877,402,2019,5.09,4.88,9.42,0.67,0.81,BTDT2R,5.61,3.8,1.81,O=C(N(CC)C1=S)/C(S1)=C/C2=CC=C(C3=C(OCCCCCC)C(OCCCCCC)=C(C4=NSN=C34)C5=CC=C(/C=C6SC(N(C\6=O)CC)=S)S5)S2,843.2,P3HT,5.14,3.14,2,CC1=CC(CCCCCC)=C(C)S1,21.1,11.6,1.818965517,1,2,CF,NA,NA,100,,,
878,402,2019,6.9,6.69,11.23,0.57,1.07,BTDT2R,5.61,3.8,1.81,O=C(N(CC)C1=S)/C(S1)=C/C2=CC=C(C3=C(OCCCCCC)C(OCCCCCC)=C(C4=NSN=C34)C5=CC=C(/C=C6SC(N(C\6=O)CC)=S)S5)S2,843.2,PPDT2FBT,5.43,3.67,1.76,CC(S1)=CC=C1C2=C(OCC(CCCCCC)CCCCCCCC)C=C(C3=CC=C(C4=C(F)C(F)=C(C)C5=NSN=C45)S3)C(OCC(CCCCCCCC)CCCCCC)=C2,100.8,48,2.1,1,2,CF,NA,NA,100,,,
879,402,2019,8.19,8.01,13.52,0.57,1.06,BTDT2R,5.61,3.8,1.81,O=C(N(CC)C1=S)/C(S1)=C/C2=CC=C(C3=C(OCCCCCC)C(OCCCCCC)=C(C4=NSN=C34)C5=CC=C(/C=C6SC(N(C\6=O)CC)=S)S5)S2,843.2,PTB7-Th,5.34,3.74,1.6,O=C(OCC(CC)CCCC)C1=C(F)C2=C(C)SC(C3=CC4=C(C(C5=CC=C(CC(CC)CCCC)S5)=C(C=C(C)S6)C6=C4C7=CC=C(CC(CC)CCCC)S7)S3)=C2S1,124,72.9,1.700960219,1,2,CF,NA,NA,100,,,
880,403,2019,12.49,12.2,18.46,0.72,0.94,ITIC,5.6,3.93,1.67,CCCCCCC(C=C1)=CC=C1C2(C3=CC=C(CCCCCC)C=C3)C4=CC5=C(C(C6=C5SC7=C6SC(/C=C8C(C(C=CC=C9)=C9C\8=C(C#N)\C#N)=O)=C7)(C%10=CC=C(CCCCCC)C=C%10)C%11=CC=C(CCCCCC)C=C%11)C=C4C%12=C2C(SC(/C=C%13C(C(C=CC=C%14)=C%14C\%13=C(C#N)/C#N)=O)=C%15)=C%15S%12,1427.96,PY1,5.45,3.12,2.33,CC(SC1=C2C3=CC=C(CC(CC)CCCC)S3)=CC1=C(C4=CC=C(CC(CC)CCCC)S4)C5=C2C=C(C6=CC7=C(C8=C(C9=NN(CC(CCCCCCCC)CCCCCCCCCC)N=C97)C=C(C)S8)S6)S5,56.028,27.6,2.03,1,1,CB,NA,130,130,,,
881,403,2019,7.39,7.19,14.54,0.66,0.77,ITIC,5.6,3.93,1.67,CCCCCCC(C=C1)=CC=C1C2(C3=CC=C(CCCCCC)C=C3)C4=CC5=C(C(C6=C5SC7=C6SC(/C=C8C(C(C=CC=C9)=C9C\8=C(C#N)\C#N)=O)=C7)(C%10=CC=C(CCCCCC)C=C%10)C%11=CC=C(CCCCCC)C=C%11)C=C4C%12=C2C(SC(/C=C%13C(C(C=CC=C%14)=C%14C\%13=C(C#N)/C#N)=O)=C%15)=C%15S%12,1427.96,PY2,5.19,3.44,1.75,CC(SC1=C2C3=CC=C(CC(CC)CCCC)S3)=CC1=C(C4=CC=C(CC(CC)CCCC)S4)C5=C2C=C(C6=CC=C(C7=CC=C(C8=CC=C(C)S8)C9=NN(CC(CCCCCCCC)CCCCCCCCCC)N=C97)S6)S5,70.532,30.8,2.29,1,2,CB,NA,130,120,,,
882,404,2019,10.65,10.41,17.75,0.701,0.856,IT-4F,5.66,4.14,1.52,CCCCCCC(C=C1)=CC=C1C2(C3=CC=C(CCCCCC)C=C3)C4=CC5=C(C(C6=C5SC7=C6SC(/C=C8C(C(C=C(F)C(F)=C9)=C9C\8=C(C#N)\C#N)=O)=C7)(C%10=CC=C(CCCCCC)C=C%10)C%11=CC=C(CCCCCC)C=C%11)C=C4C%12=C2C(SC(/C=C%13C(C(C=C(F)C(F)=C%14)=C%14C\%13=C(C#N)/C#N)=O)=C%15)=C%15S%12,1499.92,DOTFPP-PhI,5.44,3.44,2,CC(S1)=CC(OCCCCCCCCCCCC)=C1C2=CC(F)=C(C3=C(OCCCCCCCCCCCC)C=C(C4=CC=C(C)C(C(N5CC(CCCCCC)CCCCCCCC)=O)C4C5=O)S3)C=C2F,60.45,40.3,1.5,1,1,TL,PN,80,98,,,
883,404,2019,10.04,9.76,18.34,0.674,0.812,IT-4F,5.66,4.14,1.52,CCCCCCC(C=C1)=CC=C1C2(C3=CC=C(CCCCCC)C=C3)C4=CC5=C(C(C6=C5SC7=C6SC(/C=C8C(C(C=C(F)C(F)=C9)=C9C\8=C(C#N)\C#N)=O)=C7)(C%10=CC=C(CCCCCC)C=C%10)C%11=CC=C(CCCCCC)C=C%11)C=C4C%12=C2C(SC(/C=C%13C(C(C=C(F)C(F)=C%14)=C%14C\%13=C(C#N)/C#N)=O)=C%15)=C%15S%12,1499.92,DOTFPP-TPD,5.51,3.68,1.83,CC(S1)=CC(OCCCCCCCCCCCC)=C1C2=CC(F)=C(C3=C(OCCCCCCCCCCCC)C=C(C4=C5C(C(N(CC(CCCCCC)CCCCCCCC)C5=O)=O)=C(C)S4)S3)C=C2F,38.148,28.9,1.32,1,1.2,TL,PN,100,136,,,
884,405,2019,9.33,9.14,16.56,0.6552,0.86,BDCPDT-IC,5.41,3.87,1.54,O=C1C2=C(C=CC=C2)C(/C1=C/C3=CC(C(C4=CC=C(CCCCCC)C=C4)(C5=C6SC7=CC8=C(C=C57)SC(C9=C%10C=C(/C=C(C%11=O)/C(C%12=C%11C=CC=C%12)=C(C#N)\C#N)S9)=C8C%10(C%13=CC=C(CCCCCC)C=C%13)C%14=CC=C(CCCCCC)C=C%14)C%15=CC=C(CCCCCC)C=C%15)=C6S3)=C(C#N)\C#N,1427.96,PBDB-T,5.36,3.54,1.82,CC(SC1=C2C3=CC=C(CC(CC)CCCC)S3)=CC1=C(C4=CC=C(CC(CC)CCCC)S4)C5=C2C=C(S5)C6=CC=C(C7=C8C(C(C9=C(CC(CC)CCCC)SC(CC(CC)CCCC)=C9C8=O)=O)=C(C%10=CC=C(C)S%10)S7)S6,117,58.5,2,1,1,CB,DIO,NA,,,,
885,405,2019,10.82,10.52,18.55,0.6341,0.92,BDCPDT-BC,5.4,3.85,1.55,O=C1C2=C(SC3=C2C=CC=C3)C(/C1=C/C4=CC(C(C5=CC=C(CCCCCC)C=C5)(C6=C7SC8=CC9=C(C=C68)SC(C%10=C%11C=C(/C=C%12/C(C(SC%13=C%14C=CC=C%13)=C%14C%12=O)=C(C#N)\C#N)S%10)=C9C%11(C%15=CC=C(CCCCCC)C=C%15)C%16=CC=C(CCCCCC)C=C%16)C%17=CC=C(CCCCCC)C=C%17)=C7S4)=C(C#N)\C#N,1540.12,PBDB-T,5.36,3.54,1.82,CC(SC1=C2C3=CC=C(CC(CC)CCCC)S3)=CC1=C(C4=CC=C(CC(CC)CCCC)S4)C5=C2C=C(S5)C6=CC=C(C7=C8C(C(C9=C(CC(CC)CCCC)SC(CC(CC)CCCC)=C9C8=O)=O)=C(C%10=CC=C(C)S%10)S7)S6,117,58.5,2,1,1,CB,DIO,NA,,,,
886,405,2019,9.25,9.25,14.26,0.6408,0.97,DTCC-IC,5.47,3.83,1.64,O=C(C(C=CC=C1)=C1C/2=C(C#N)/C#N)C2=C/C(S3)=CC4=C3C(C=C(N5C(CCCCCC)CCCCCC)C(C6=CC(C(C(C=C7)=CC=C7CCCCCC)(C8=C9SC(/C=C%10/C(C%11=C(C%10=O)C=CC=C%11)=C(C#N)/C#N)=C8)C(C=C%12)=CC=C%12CCCCCC)=C9C=C56)=C%13)=C%13C4(C%14=CC=C(CCCCCC)C=C%14)C%15=CC=C(CCCCCC)C=C%15,1587.24,PBDB-T,5.36,3.54,1.82,CC(SC1=C2C3=CC=C(CC(CC)CCCC)S3)=CC1=C(C4=CC=C(CC(CC)CCCC)S4)C5=C2C=C(S5)C6=CC=C(C7=C8C(C(C9=C(CC(CC)CCCC)SC(CC(CC)CCCC)=C9C8=O)=O)=C(C%10=CC=C(C)S%10)S7)S6,117,58.5,2,1,1.5,CB,DIO,NA,,,,
887,405,2019,10.74,10.46,17.22,0.6362,0.98,DTCC-BC,5.46,3.81,1.65,O=C(C(C(C=CC=C1)=C1S2)=C2C/3=C(C#N)/C#N)C3=C/C(S4)=CC5=C4C(C=C(N6C(CCCCCC)CCCCCC)C(C7=CC(C(C(C=C8)=CC=C8CCCCCC)(C9=C%10SC(/C=C%11/C(C(SC%12=C%13C=CC=C%12)=C%13C%11=O)=C(C#N)/C#N)=C9)C(C=C%14)=CC=C%14CCCCCC)=C%10C=C67)=C%15)=C%15C5(C%16=CC=C(CCCCCC)C=C%16)C%17=CC=C(CCCCCC)C=C%17,1699.4,PBDB-T,5.36,3.54,1.82,CC(SC1=C2C3=CC=C(CC(CC)CCCC)S3)=CC1=C(C4=CC=C(CC(CC)CCCC)S4)C5=C2C=C(S5)C6=CC=C(C7=C8C(C(C9=C(CC(CC)CCCC)SC(CC(CC)CCCC)=C9C8=O)=O)=C(C%10=CC=C(C)S%10)S7)S6,117,58.5,2,1,1.5,OX,DIO,NA,,,,
888,405,2019,10.05,10.01,16.75,0.6523,0.92,ITIC,5.61,4.01,1.6,CCCCCCC(C=C1)=CC=C1C2(C3=CC=C(CCCCCC)C=C3)C4=CC5=C(C(C6=C5SC7=C6SC(/C=C8C(C(C=CC=C9)=C9C\8=C(C#N)\C#N)=O)=C7)(C%10=CC=C(CCCCCC)C=C%10)C%11=CC=C(CCCCCC)C=C%11)C=C4C%12=C2C(SC(/C=C%13C(C(C=CC=C%14)=C%14C\%13=C(C#N)/C#N)=O)=C%15)=C%15S%12,1427.96,PBDB-T,5.36,3.54,1.82,CC(SC1=C2C3=CC=C(CC(CC)CCCC)S3)=CC1=C(C4=CC=C(CC(CC)CCCC)S4)C5=C2C=C(S5)C6=CC=C(C7=C8C(C(C9=C(CC(CC)CCCC)SC(CC(CC)CCCC)=C9C8=O)=O)=C(C%10=CC=C(C)S%10)S7)S6,117,58.5,2,1,1,CB,DIO,NA,,,,
889,405,2019,12.07,11.7,19.9,0.6451,0.94,ITBC,5.49,3.9,1.59,O=C1C2=C(SC3=C2C=CC=C3)C(/C1=C/C4=CC(SC5=C6C(C7=CC=C(CCCCCC)C=C7)(C8=CC=C(CCCCCC)C=C8)C9=CC%10=C(C=C59)C(C%11=CC=C(CCCCCC)C=C%11)(C%12=CC=C(CCCCCC)C=C%12)C%13=C%10SC%14=C%13SC(/C=C%15/C(C(SC%16=C%17C=CC=C%16)=C%17C%15=O)=C(C#N)\C#N)=C%14)=C6S4)=C(C#N)\C#N,1540.12,PBDB-T,5.36,3.54,1.82,CC(SC1=C2C3=CC=C(CC(CC)CCCC)S3)=CC1=C(C4=CC=C(CC(CC)CCCC)S4)C5=C2C=C(S5)C6=CC=C(C7=C8C(C(C9=C(CC(CC)CCCC)SC(CC(CC)CCCC)=C9C8=O)=O)=C(C%10=CC=C(C)S%10)S7)S6,117,58.5,2,1,1.2,CB,CN,NA,,,,
890,406,2019,10.1,9.7,15.49,0.586,1.069,ITIC2,5.48,3.84,1.64,O=C1C2=C(C=CC=C2)C(/C1=C/C3=CC(C(C4=CC=C(CCCCCC)C=C4)(C5=C6SC7=C(C8=CC=C(CC(CCCC)CC)S8)C9=C(C(C%10=CC=C(CC(CC)CCCC)S%10)=C57)SC(C%11=C%12C=C(/C=C%13/C(C(C=CC=C%14)=C%14C%13=O)=C(C#N)\C#N)S%11)=C9C%12(C%15=CC=C(CCCCCC)C=C%15)C%16=CC=C(CCCCCC)C=C%16)C%17=CC=C(CCCCCC)C=C%17)=C6S3)=C(C#N)\C#N,1816.63,PBDB-T-SF,5.4,3.6,1.8,CC(SC1=C2C3=CC(F)=C(SCC(CC)CCCC)S3)=CC1=C(C4=CC(F)=C(SCC(CC)CCCC)S4)C5=C2C=C(C6=CC=C(C7=C8C(C(C9=C(CC(CC)CCCC)SC(CC(CC)CCCC)=C9C8=O)=O)=C(C%10=CC=C(C)S%10)S7)S6)S5,58.194,18.348,3.171680837,1,1,CF,NA,NA,,,,
891,406,2019,11.6,11.4,16.4,0.663,1.046,ITIC-S,5.5,3.86,1.64,O=C1C2=C(C=CC=C2)C(/C1=C/C3=CC(C(C4=CC=C(CCCCCC)C=C4)(C5=C6SC7=C(C8=CC=C(SCC(CCCC)CC)S8)C9=C(C(C%10=CC=C(SCC(CC)CCCC)S%10)=C57)SC(C%11=C%12C=C(/C=C%13/C(C(C=CC=C%14)=C%14C%13=O)=C(C#N)\C#N)S%11)=C9C%12(C%15=CC=C(CCCCCC)C=C%15)C%16=CC=C(CCCCCC)C=C%16)C%17=CC=C(CCCCCC)C=C%17)=C6S3)=C(C#N)\C#N,1880.75,PBDB-T-SF,5.4,3.6,1.8,CC(SC1=C2C3=CC(F)=C(SCC(CC)CCCC)S3)=CC1=C(C4=CC(F)=C(SCC(CC)CCCC)S4)C5=C2C=C(C6=CC=C(C7=C8C(C(C9=C(CC(CC)CCCC)SC(CC(CC)CCCC)=C9C8=O)=O)=C(C%10=CC=C(C)S%10)S7)S6)S5,58.194,18.348,3.171680837,1,1,CF,NA,NA,,,,