ID,Ref,year,PCE_max(%),PCE_ave(%),Jsc(mA/cm2),FF,Voc(V),Nickname(n),-HOMO_n(eV),-LUMO_n(eV),Eg_n(eV),n(SMILES),M (g/mol),Nickname(p),-HOMO_p(eV),-LUMO_p(eV),Eg_p(eV),p(SMILES),Mw (kg/mol),Mn(kg/mol),PDI,p/n ratio (p),p/n ratio (n),Solvent,Additive,TA (oC),thick (nm),,Journal,DOI
1218,530,2019,4.43,4.39,10.51,0.437,0.96,ITIC,5.51,3.71,1.8,CCCCCCC(C=C1)=CC=C1C2(C3=CC=C(CCCCCC)C=C3)C4=CC5=C(C(C6=C5SC7=C6SC(/C=C8C(C(C=CC=C9)=C9C\8=C(C#N)\C#N)=O)=C7)(C%10=CC=C(CCCCCC)C=C%10)C%11=CC=C(CCCCCC)C=C%11)C=C4C%12=C2C(SC(/C=C%13C(C(C=CC=C%14)=C%14C\%13=C(C#N)/C#N)=O)=C%15)=C%15S%12,1427.96,PBDT-TPD,5.36,3.06,2.3,CCCCCCCCN1C(C2=C(SC(C3=CC4=C(S3)C(OCC(CC)CCCC)=C5C=C(SC5=C4OCC(CC)CCCC)C)=C2C1=O)C)=O,34.524,13.7,2.52,1,1,CF,NA,130,75,,,
1219,530,2019,4.97,4.88,12.1,0.429,0.94,ITIC,5.51,3.71,1.8,CCCCCCC(C=C1)=CC=C1C2(C3=CC=C(CCCCCC)C=C3)C4=CC5=C(C(C6=C5SC7=C6SC(/C=C8C(C(C=CC=C9)=C9C\8=C(C#N)\C#N)=O)=C7)(C%10=CC=C(CCCCCC)C=C%10)C%11=CC=C(CCCCCC)C=C%11)C=C4C%12=C2C(SC(/C=C%13C(C(C=CC=C%14)=C%14C\%13=C(C#N)/C#N)=O)=C%15)=C%15S%12,1427.96,PBDTT-TPD,5.51,3.09,2.42,CCCCCCCCN1C(C2=C(SC(C3=CC4=C(S3)C(C5=CC=C(S5)CCCCCCCCCCCC)=C6C=C(SC6=C4C7=CC=C(S7)CCCCCCCCCCCC)C)=C2C1=O)C)=O,29.282,12.1,2.42,1,1,CF,NA,NA,81,,,
1220,530,2019,6.17,5.98,12.98,0.48,0.96,ITIC,5.51,3.71,1.8,CCCCCCC(C=C1)=CC=C1C2(C3=CC=C(CCCCCC)C=C3)C4=CC5=C(C(C6=C5SC7=C6SC(/C=C8C(C(C=CC=C9)=C9C\8=C(C#N)\C#N)=O)=C7)(C%10=CC=C(CCCCCC)C=C%10)C%11=CC=C(CCCCCC)C=C%11)C=C4C%12=C2C(SC(/C=C%13C(C(C=CC=C%14)=C%14C\%13=C(C#N)/C#N)=O)=C%15)=C%15S%12,1427.96,PBDTT-TPD,5.51,3.09,2.42,CCCCCCCCN1C(C2=C(SC(C3=CC4=C(S3)C(C5=CC=C(S5)CCCCCCCCCCCC)=C6C=C(SC6=C4C7=CC=C(S7)CCCCCCCCCCCC)C)=C2C1=O)C)=O,29.282,12.1,2.42,1,1,CF,NA,130,81,,,
1221,530,2019,4.36,4.3,10.04,0.481,0.88,IDIC,5.59,3.91,1.68,O=C(C(C=CC=C1)=C1C/2=C(C#N)\C#N)C2=C/C(S3)=CC4=C3C5=C(C4(CCCCCC)CCCCCC)C=C6C(C(CCCCCC)(CCCCCC)C7=C6SC(/C=C8C(C(C=CC=C9)=C9C\8=C(C#N)/C#N)=O)=C7)=C5,1011.4,PBDT-TPD,5.36,3.06,2.3,CCCCCCCCN1C(C2=C(SC(C3=CC4=C(S3)C(OCC(CC)CCCC)=C5C=C(SC5=C4OCC(CC)CCCC)C)=C2C1=O)C)=O,34.524,13.7,2.52,1,1,CF,NA,130,,,,
1222,530,2019,7.15,7.11,14.47,0.552,0.89,IDIC,5.59,3.91,1.68,O=C(C(C=CC=C1)=C1C/2=C(C#N)\C#N)C2=C/C(S3)=CC4=C3C5=C(C4(CCCCCC)CCCCCC)C=C6C(C(CCCCCC)(CCCCCC)C7=C6SC(/C=C8C(C(C=CC=C9)=C9C\8=C(C#N)/C#N)=O)=C7)=C5,1011.4,PBDTT-TPD,5.51,3.09,2.42,CCCCCCCCN1C(C2=C(SC(C3=CC4=C(S3)C(C5=CC=C(S5)CCCCCCCCCCCC)=C6C=C(SC6=C4C7=CC=C(S7)CCCCCCCCCCCC)C)=C2C1=O)C)=O,29.282,12.1,2.42,1,1,CF,NA,100,,,,
1223,531,2019,8.47,8.47,15.62,0.684,0.79,IDIC,5.69,3.92,1.77,O=C(C(C=CC=C1)=C1C/2=C(C#N)\C#N)C2=C/C(S3)=CC4=C3C5=C(C4(CCCCCC)CCCCCC)C=C6C(C(CCCCCC)(CCCCCC)C7=C6SC(/C=C8C(C(C=CC=C9)=C9C\8=C(C#N)/C#N)=O)=C7)=C5,1011.4,PBDB-T,5.33,2.92,2.41,CC(SC1=C2C3=CC=C(CC(CC)CCCC)S3)=CC1=C(C4=CC=C(CC(CC)CCCC)S4)C5=C2C=C(S5)C6=CC=C(C7=C8C(C(C9=C(CC(CC)CCCC)SC(CC(CC)CCCC)=C9C8=O)=O)=C(C%10=CC=C(C)S%10)S7)S6,117,58.5,2,1,1,CB,NA,NA,,,,
1224,531,2019,9.19,9.19,17.35,0.68,0.77,IDIC,5.69,3.92,1.77,O=C(C(C=CC=C1)=C1C/2=C(C#N)\C#N)C2=C/C(S3)=CC4=C3C5=C(C4(CCCCCC)CCCCCC)C=C6C(C(CCCCCC)(CCCCCC)C7=C6SC(/C=C8C(C(C=CC=C9)=C9C\8=C(C#N)/C#N)=O)=C7)=C5,1011.4,PBDB-T,5.33,2.92,2.41,CC(SC1=C2C3=CC=C(CC(CC)CCCC)S3)=CC1=C(C4=CC=C(CC(CC)CCCC)S4)C5=C2C=C(S5)C6=CC=C(C7=C8C(C(C9=C(CC(CC)CCCC)SC(CC(CC)CCCC)=C9C8=O)=O)=C(C%10=CC=C(C)S%10)S7)S6,117,58.5,2,1,1,CB,DIO,NA,,,,
1225,531,2019,7.92,7.92,13.35,0.683,0.87,NDIC,5.71,3.88,1.83,O=C(C(C=CC=C1)=C1C/2=C(C#N)\C#N)C2=C/C(S3)=CC4=C3C(C(C4(CCCCCCCC)CCCCCCCC)=CC5=C6)=CC5=CC(C7(CCCCCCCC)CCCCCCCC)=C6C8=C7C=C(/C=C9C(C(C=CC=C%10)=C%10C\9=C(C#N)\C#N)=O)S8,1173.68,PBDB-T,5.33,2.92,2.41,CC(SC1=C2C3=CC=C(CC(CC)CCCC)S3)=CC1=C(C4=CC=C(CC(CC)CCCC)S4)C5=C2C=C(S5)C6=CC=C(C7=C8C(C(C9=C(CC(CC)CCCC)SC(CC(CC)CCCC)=C9C8=O)=O)=C(C%10=CC=C(C)S%10)S7)S6,117,58.5,2,1,1.5,CB,NA,NA,,,,
1226,531,2019,9.43,9.43,15.1,0.696,0.9,NDIC,5.71,3.88,1.83,O=C(C(C=CC=C1)=C1C/2=C(C#N)\C#N)C2=C/C(S3)=CC4=C3C(C(C4(CCCCCCCC)CCCCCCCC)=CC5=C6)=CC5=CC(C7(CCCCCCCC)CCCCCCCC)=C6C8=C7C=C(/C=C9C(C(C=CC=C%10)=C%10C\9=C(C#N)\C#N)=O)S8,1173.68,PBDB-T,5.33,2.92,2.41,CC(SC1=C2C3=CC=C(CC(CC)CCCC)S3)=CC1=C(C4=CC=C(CC(CC)CCCC)S4)C5=C2C=C(S5)C6=CC=C(C7=C8C(C(C9=C(CC(CC)CCCC)SC(CC(CC)CCCC)=C9C8=O)=O)=C(C%10=CC=C(C)S%10)S7)S6,117,58.5,2,1,1.5,CB,CBA,140,,,,
1227,532,2020,10.01,10,16.85,0.6012,0.987,IDIC,5.69,3.98,1.71,O=C(C(C=CC=C1)=C1C/2=C(C#N)\C#N)C2=C/C(S3)=CC4=C3C5=C(C4(CCCCCC)CCCCCC)C=C6C(C(CCCCCC)(CCCCCC)C7=C6SC(/C=C8C(C(C=CC=C9)=C9C\8=C(C#N)/C#N)=O)=C7)=C5,1011.4,PTQ10,5.54,2.98,2.56,FC1=C(C2=CC=C(C)S2)C3=NC(OCC(CCCCCC)CCCCCCCC)=CN=C3C(C)=C1F,82.11,39.1,2.1,1,1,CF,NA,NA,130,,,
1228,532,2020,11.86,11.64,17.42,0.7018,0.952,IDIC,5.69,3.98,1.71,O=C(C(C=CC=C1)=C1C/2=C(C#N)\C#N)C2=C/C(S3)=CC4=C3C5=C(C4(CCCCCC)CCCCCC)C=C6C(C(CCCCCC)(CCCCCC)C7=C6SC(/C=C8C(C(C=CC=C9)=C9C\8=C(C#N)/C#N)=O)=C7)=C5,1011.4,PTQ10,5.54,2.98,2.56,FC1=C(C2=CC=C(C)S2)C3=NC(OCC(CCCCCC)CCCCCCCC)=CN=C3C(C)=C1F,82.11,39.1,2.1,1,1,CF,NA,140,130,,,
1229,532,2020,9.25,8.85,15.94,0.5366,1.035,ITIC,5.51,3.84,1.67,CCCCCCC(C=C1)=CC=C1C2(C3=CC=C(CCCCCC)C=C3)C4=CC5=C(C(C6=C5SC7=C6SC(/C=C8C(C(C=CC=C9)=C9C\8=C(C#N)\C#N)=O)=C7)(C%10=CC=C(CCCCCC)C=C%10)C%11=CC=C(CCCCCC)C=C%11)C=C4C%12=C2C(SC(/C=C%13C(C(C=CC=C%14)=C%14C\%13=C(C#N)/C#N)=O)=C%15)=C%15S%12,1427.96,PTQ10,5.54,2.98,2.56,FC1=C(C2=CC=C(C)S2)C3=NC(OCC(CCCCCC)CCCCCCCC)=CN=C3C(C)=C1F,82.11,39.1,2.1,1,1,CF,NA,NA,130,,,
1230,532,2020,10.9,10.53,17.3,0.5928,1.026,ITIC,5.51,3.84,1.67,CCCCCCC(C=C1)=CC=C1C2(C3=CC=C(CCCCCC)C=C3)C4=CC5=C(C(C6=C5SC7=C6SC(/C=C8C(C(C=CC=C9)=C9C\8=C(C#N)\C#N)=O)=C7)(C%10=CC=C(CCCCCC)C=C%10)C%11=CC=C(CCCCCC)C=C%11)C=C4C%12=C2C(SC(/C=C%13C(C(C=CC=C%14)=C%14C\%13=C(C#N)/C#N)=O)=C%15)=C%15S%12,1427.96,PTQ10,5.54,2.98,2.56,FC1=C(C2=CC=C(C)S2)C3=NC(OCC(CCCCCC)CCCCCCCC)=CN=C3C(C)=C1F,82.11,39.1,2.1,1,1,CF,NA,140,130,,,
1231,533,2018,7.4,6.9,13.9,0.54,0.98,IDTCN,5.91,3.94,1.97,CCCCCCC(C=C1)=CC=C1C2(C3=CC=C(CCCCCC)C=C3)C4=CC5=C(C(C6=C5SC(/C=C7C(C8=CSC=C8C\7=C(C#N)\C#N)=O)=C6)(C9=CC=C(CCCCCC)C=C9)C%10=CC=C(CCCCCC)C=C%10)C=C4C%11=C2C=C(C=C%12C(C%13=CSC=C%13/C%12=C(C#N)\C#N)=O)S%11,1327.84,PTQ10,5.54,2.98,2.56,FC1=C(C2=CC=C(C)S2)C3=NC(OCC(CCCCCC)CCCCCCCC)=CN=C3C(C)=C1F,82.11,39.1,2.1,1,1,CF,NA,110,145,,,
1232,533,2018,12.2,11.9,17.5,0.746,0.93,IDTPC,5.84,3.98,1.86,CCCCCCC1(CCCCCC)C2=C(C3=CC(C4(CCCCCC)CCCCCC)=C(C5=C4C=C(/C=C6C(C7=CSC=C7C\6=C(C#N)/C#N)=O)S5)C=C31)SC(/C=C8C(C9=CSC=C9C\8=C(C#N)/C#N)=O)=C2,1023.44,PTQ10,5.54,2.98,2.56,FC1=C(C2=CC=C(C)S2)C3=NC(OCC(CCCCCC)CCCCCCCC)=CN=C3C(C)=C1F,82.11,39.1,2.1,1,1,CF,NA,110,145,,,
1233,534,2020,7.06,6.78,11.8,0.5891,0.965,ZITI-N,5.53,3.82,1.71,O=C1C2=C(C(/C1=C/C3=CC(N(C)C4=CC5=C6C7=C(C5(CC(CCCC)CCCCCC)CC(CCCC)CCCCCC)C8=C(C=C9N(C)C%10=C(C9=C8)SC(/C=C%11/C(C%12=C(C%11=O)C=C(F)C(F)=C%12)=C(C#N)\C#N)=C%10)C7(CC(CCCC)CCCCCC)CC(CCCC)CCCCCC)=C(C4=C6)S3)=C(C#N)\C#N)C=C(F)C(F)=C2,1576.2,PTQ10,5.6,3.52,2.08,FC1=C(C2=CC=C(C)S2)C3=NC(OCC(CCCCCC)CCCCCCCC)=CN=C3C(C)=C1F,82.11,39.1,2.1,1,1,CF,NA,120,110,,,
1234,534,2020,10.69,10.53,16.97,0.6471,0.958,ZITI-S,5.8,3.87,1.93,O=C1C2=C(C(/C1=C/C3=CC(SC4=CC5=C6C7=C(C5(CC(CCCC)CCCCCC)CC(CCCC)CCCCCC)C8=C(C=C9SC%10=C(C9=C8)SC(/C=C%11/C(C%12=C(C%11=O)C=C(F)C(F)=C%12)=C(C#N)\C#N)=C%10)C7(CC(CCCC)CCCCCC)CC(CCCC)CCCCCC)=C(C4=C6)S3)=C(C#N)\C#N)C=C(F)C(F)=C2,1582.23,PTQ10,5.6,3.52,2.08,FC1=C(C2=CC=C(C)S2)C3=NC(OCC(CCCCCC)CCCCCCCC)=CN=C3C(C)=C1F,82.11,39.1,2.1,1,1,CF,NA,100,110,,,
1235,535,2020,12.4,12.4,20.2,0.63,0.97,IDIC,5.69,3.98,1.71,O=C(C(C=CC=C1)=C1C/2=C(C#N)\C#N)C2=C/C(S3)=CC4=C3C5=C(C4(CCCCCC)CCCCCC)C=C6C(C(CCCCCC)(CCCCCC)C7=C6SC(/C=C8C(C(C=CC=C9)=C9C\8=C(C#N)/C#N)=O)=C7)=C5,1011.4,PTQ10,5.54,2.98,2.56,FC1=C(C2=CC=C(C)S2)C3=NC(OCC(CCCCCC)CCCCCCCC)=CN=C3C(C)=C1F,82.11,39.1,2.1,1,1.5,CF,NA,140,,,,
1236,536,2021,17.1,16.7,24.3,0.753,0.882,BTP-Ph,5.58,3.79,1.79,O=C(C(C=C(F)C(F)=C1)=C1C/2=C(C#N)/C#N)C2=C/C3=C(C4=CC=C(CCCCCC)C=C4)C(SC5=C6N(CC(CC)CCCC)C7=C5C8=NSN=C8C9=C7N(CC(CC)CCCC)C%10=C9SC%11=C%10SC(/C=C%12/C(C%13=C(C%12=O)C=C(F)C(F)=C%13)=C(C#N)\C#N)=C%11C%14=CC=C(CCCCCC)C=C%14)=C6S3,1463.86,PTQ10,5.53,2.81,2.72,FC1=C(C2=CC=C(C)S2)C3=NC(OCC(CCCCCC)CCCCCCCC)=CN=C3C(C)=C1F,82.11,39.1,2.1,1,1.2,CF,CN,100,,,,
1237,536,2021,16.8,16.4,24.8,0.747,0.872,BTP-Th,5.6,3.78,1.82,O=C(C(C=C(F)C(F)=C1)=C1C/2=C(C#N)/C#N)C2=C/C3=C(C4=CC=C(CCCCCCCC)S4)C(SC5=C6N(CC(CC)CCCC)C7=C5C8=NSN=C8C9=C7N(CC(CC)CCCC)C%10=C9SC%11=C%10SC(/C=C%12/C(C%13=C(C%12=O)C=C(F)C(F)=C%13)=C(C#N)\C#N)=C%11C%14=CC=C(CCCCCCCC)S%14)=C6S3,1532.02,PTQ10,5.53,2.81,2.72,FC1=C(C2=CC=C(C)S2)C3=NC(OCC(CCCCCC)CCCCCCCC)=CN=C3C(C)=C1F,82.11,39.1,2.1,1,1.2,CF,CN,100,,,,
1238,536,2021,16.4,16,24.7,0.741,0.852,BTP-C11,5.64,3.86,1.78,O=C(C(C=C(F)C(F)=C1)=C1C/2=C(C#N)/C#N)C2=C/C3=C(CCCCCCCCCCC)C(SC4=C5N(CC(CC)CCCC)C6=C4C7=NSN=C7C8=C6N(CC(CC)CCCC)C9=C8SC%10=C9SC(/C=C%11/C(C%12=C(C%11=O)C=C(F)C(F)=C%12)=C(C#N)\C#N)=C%10CCCCCCCCCCC)=C5S3,1451.94,PTQ10,5.53,2.81,2.72,FC1=C(C2=CC=C(C)S2)C3=NC(OCC(CCCCCC)CCCCCCCC)=CN=C3C(C)=C1F,82.11,39.1,2.1,1,1.2,CF,CN,100,,,,
1239,537,2019,5.75,5.69,18.65,0.434,0.71,Y6,5.66,4.08,1.58,O=C(C(C=C(F)C(F)=C1)=C1C/2=C(C#N)/C#N)C2=C/C3=C(CCCCCCCCCCC)C(SC4=C5N(CC(CC)CCCC)C6=C4C7=NSN=C7C8=C6N(CC(CC)CCCC)C9=C8SC%10=C9SC(/C=C%11/C(C%12=C(C%11=O)C=C(F)C(F)=C%12)=C(C#N)\C#N)=C%10CCCCCCCCCCC)=C5S3,1451.94,PTQ7,5.38,2.82,2.56,CC(S1)=CC=C1C2=CC=C(C)C3=NC=C(OCC(CCCCCCCC)CCCCCC)N=C23,45.08,19.6,2.3,1,1.2,CF,NA,110,130,,,
1240,537,2019,0.9,0.86,3.11,0.325,0.89,Y6,5.66,4.08,1.58,O=C(C(C=C(F)C(F)=C1)=C1C/2=C(C#N)/C#N)C2=C/C3=C(CCCCCCCCCCC)C(SC4=C5N(CC(CC)CCCC)C6=C4C7=NSN=C7C8=C6N(CC(CC)CCCC)C9=C8SC%10=C9SC(/C=C%11/C(C%12=C(C%11=O)C=C(F)C(F)=C%12)=C(C#N)\C#N)=C%10CCCCCCCCCCC)=C5S3,1451.94,PTQ8,5.68,2.92,2.76,CC(S1)=C(F)C(F)=C1C2=CC=C(C)C3=NC=C(OCC(CCCCCCCC)CCCCCC)N=C23,33.28,20.8,1.6,1,1.2,CF,NA,110,130,,,
1241,537,2019,10.5,10.3,23.72,0.54,0.82,Y6,5.66,4.08,1.58,O=C(C(C=C(F)C(F)=C1)=C1C/2=C(C#N)/C#N)C2=C/C3=C(CCCCCCCCCCC)C(SC4=C5N(CC(CC)CCCC)C6=C4C7=NSN=C7C8=C6N(CC(CC)CCCC)C9=C8SC%10=C9SC(/C=C%11/C(C%12=C(C%11=O)C=C(F)C(F)=C%12)=C(C#N)\C#N)=C%10CCCCCCCCCCC)=C5S3,1451.94,PTQ9,5.41,2.87,2.54,FC1=C(C2=NC(OCC(CCCCCCCC)CCCCCC)=CN=C2C(C)=C1)C3=CC=C(S3)C,50.2,25.1,2,1,1.2,CF,NA,110,130,,,
1242,537,2019,16.21,15.97,24.81,0.751,0.87,Y6,5.66,4.08,1.58,O=C(C(C=C(F)C(F)=C1)=C1C/2=C(C#N)/C#N)C2=C/C3=C(CCCCCCCCCCC)C(SC4=C5N(CC(CC)CCCC)C6=C4C7=NSN=C7C8=C6N(CC(CC)CCCC)C9=C8SC%10=C9SC(/C=C%11/C(C%12=C(C%11=O)C=C(F)C(F)=C%12)=C(C#N)\C#N)=C%10CCCCCCCCCCC)=C5S3,1451.94,PTQ10,5.55,2.9,2.65,FC1=C(C2=CC=C(C)S2)C3=NC(OCC(CCCCCC)CCCCCCCC)=CN=C3C(C)=C1F,48.32,30.2,1.6,1,1.2,CF,NA,110,130,,,
1243,538,2021,16.1,15.9,25.4,0.71,0.87,Y6-BO,5.79,4.1,1.69,O=C(C(C=C(F)C(F)=C1)=C1C/2=C(C#N)/C#N)C2=C/C3=C(CCCCCCCCCCC)C(SC4=C5N(CC(CCCC)CCCCCC)C6=C4C7=NSN=C7C8=C6N(CC(CCCC)CCCCCC)C9=C8SC%10=C9SC(/C=C%11/C(C%12=C(C%11=O)C=C(F)C(F)=C%12)=C(C#N)\C#N)=C%10CCCCCCCCCCC)=C5S3,1564.15,PBNT-BDD,5.52,3.46,2.06,CC(S1)=CC=C1C(S2)=C(C(C3=C(CC(CC)CCCC)SC(CC(CC)CCCC)=C3C4=O)=O)C4=C2C5=CC=C(C6=CC(B(C7=CC=CC=C7)N(CC(CCCCCC)CCCCCCCC)C8=C9C=C%10C(C(SC(C)=C%11)=C%11B(C%12=CC=CC=C%12)N%10CC(CCCCCC)CCCCCCCC)=C8)=C9S6)S5,112.1,59,1.9,1,1.2,CF,DIO/DPE,110,,,,
1244,538,2021,16,15.8,25.8,0.74,0.83,Y6-BO,5.79,4.1,1.69,O=C(C(C=C(F)C(F)=C1)=C1C/2=C(C#N)/C#N)C2=C/C3=C(CCCCCCCCCCC)C(SC4=C5N(CC(CCCC)CCCCCC)C6=C4C7=NSN=C7C8=C6N(CC(CCCC)CCCCCC)C9=C8SC%10=C9SC(/C=C%11/C(C%12=C(C%11=O)C=C(F)C(F)=C%12)=C(C#N)\C#N)=C%10CCCCCCCCCCC)=C5S3,1564.15,PM6,5.5,3.61,1.89,CC(SC1=C2C3=CC(F)=C(CC(CC)CCCC)S3)=CC1=C(C4=CC(F)=C(CC(CC)CCCC)S4)C5=C2C=C(S5)C6=CC=C(C7=C8C(C(C9=C(CC(CC)CCCC)SC(CC(CC)CCCC)=C9C8=O)=O)=C(C%10=CC=C(C)S%10)S7)S6,38.6,19.3,2,1,1.2,CF,DIO/DPE,110,,,,
1245,539,2021,11.9,11.7,19.8,0.682,0.867,Y6,5.65,4.1,1.55,O=C(C(C=C(F)C(F)=C1)=C1C/2=C(C#N)/C#N)C2=C/C3=C(CCCCCCCCCCC)C(SC4=C5N(CC(CC)CCCC)C6=C4C7=NSN=C7C8=C6N(CC(CC)CCCC)C9=C8SC%10=C9SC(/C=C%11/C(C%12=C(C%11=O)C=C(F)C(F)=C%12)=C(C#N)\C#N)=C%10CCCCCCCCCCC)=C5S3,1451.94,PCTZ-B,5.41,3.57,1.84,CCCCC(CC)CC(S1)=CC=C1C2=C3C(C=C(S3)C4=CC(NC(OCC(CCCCCCCC)CCCCCCCCCC)=O)=C(C5=NC(SC(C6=C(NC(OCC(CCCCCCCC)CCCCCCCCCC)=O)C=C(C)S6)=N7)=C7S5)S4)=C(C8=CC=C(CC(CC)CCCC)S8)C9=C2C=C(C)S9,293,146.1,2.005475702,1,1,CF,CN,NA,100,,,
1246,539,2021,12.9,12.7,21.7,0.691,0.85,Y6,5.65,4.1,1.55,O=C(C(C=C(F)C(F)=C1)=C1C/2=C(C#N)/C#N)C2=C/C3=C(CCCCCCCCCCC)C(SC4=C5N(CC(CC)CCCC)C6=C4C7=NSN=C7C8=C6N(CC(CC)CCCC)C9=C8SC%10=C9SC(/C=C%11/C(C%12=C(C%11=O)C=C(F)C(F)=C%12)=C(C#N)\C#N)=C%10CCCCCCCCCCC)=C5S3,1451.94,PCTZ-B,5.41,3.57,1.84,CCCCC(CC)CC(S1)=CC=C1C2=C3C(C=C(S3)C4=CC(NC(OCC(CCCCCCCC)CCCCCCCCCC)=O)=C(C5=NC(SC(C6=C(NC(OCC(CCCCCCCC)CCCCCCCCCC)=O)C=C(C)S6)=N7)=C7S5)S4)=C(C8=CC=C(CC(CC)CCCC)S8)C9=C2C=C(C)S9,293,146.1,2.005475702,1,1.2,CF,CN,NA,100,,,
1247,539,2021,12.6,12.3,21.6,0.676,0.843,Y6,5.65,4.1,1.55,O=C(C(C=C(F)C(F)=C1)=C1C/2=C(C#N)/C#N)C2=C/C3=C(CCCCCCCCCCC)C(SC4=C5N(CC(CC)CCCC)C6=C4C7=NSN=C7C8=C6N(CC(CC)CCCC)C9=C8SC%10=C9SC(/C=C%11/C(C%12=C(C%11=O)C=C(F)C(F)=C%12)=C(C#N)\C#N)=C%10CCCCCCCCCCC)=C5S3,1451.94,PCTZ-B,5.41,3.57,1.84,CCCCC(CC)CC(S1)=CC=C1C2=C3C(C=C(S3)C4=CC(NC(OCC(CCCCCCCC)CCCCCCCCCC)=O)=C(C5=NC(SC(C6=C(NC(OCC(CCCCCCCC)CCCCCCCCCC)=O)C=C(C)S6)=N7)=C7S5)S4)=C(C8=CC=C(CC(CC)CCCC)S8)C9=C2C=C(C)S9,293,146.1,2.005475702,1,1.5,CF,CN,NA,100,,,
1248,539,2021,12,11.6,20.8,0.665,0.841,Y6,5.65,4.1,1.55,O=C(C(C=C(F)C(F)=C1)=C1C/2=C(C#N)/C#N)C2=C/C3=C(CCCCCCCCCCC)C(SC4=C5N(CC(CC)CCCC)C6=C4C7=NSN=C7C8=C6N(CC(CC)CCCC)C9=C8SC%10=C9SC(/C=C%11/C(C%12=C(C%11=O)C=C(F)C(F)=C%12)=C(C#N)\C#N)=C%10CCCCCCCCCCC)=C5S3,1451.94,PCTZ-B,5.41,3.57,1.84,CCCCC(CC)CC(S1)=CC=C1C2=C3C(C=C(S3)C4=CC(NC(OCC(CCCCCCCC)CCCCCCCCCC)=O)=C(C5=NC(SC(C6=C(NC(OCC(CCCCCCCC)CCCCCCCCCC)=O)C=C(C)S6)=N7)=C7S5)S4)=C(C8=CC=C(CC(CC)CCCC)S8)C9=C2C=C(C)S9,293,146.1,2.005475702,1,2,CF,CN,NA,100,,,
1249,540,2020,9.92,9.63,16.17,0.605,0.984,TACIC,5.44,3.72,1.72,O=C1C(C=CC=C2)=C2C(/C1=C/C(S3)=CC4=C3C5=C(C(C6=CC=C(CCCCCC)C=C6)4C7=CC=C(CCCCCC)C=C7)C8=C(C(C(OCC(CCCC)CCCCCC)=N9)=C%10C(C8=CC=C%11N=C%12OCC(CCCC)CCCCCC)=C%11C(C%13=C%14C=CC9=C%13%10)=C%12C%15=C%14C(C(C%16=CC=C(CCCCCC)C=C%16)%17C%18=CC=C(CCCCCC)C=C%18)=C(S%15)C%19=C%17C=C(/C=C%20/C(C%21=C(C=CC=C%21)C%20=O)=C(C#N)\C#N)S%19)S5)=C(C#N)/C#N,2020.82,PBDB-T,5.33,2.92,2.41,CC(SC1=C2C3=CC=C(CC(CC)CCCC)S3)=CC1=C(C4=CC=C(CC(CC)CCCC)S4)C5=C2C=C(S5)C6=CC=C(C7=C8C(C(C9=C(CC(CC)CCCC)SC(CC(CC)CCCC)=C9C8=O)=O)=C(C%10=CC=C(C)S%10)S7)S6,117,58.5,2,1,0.9,CF,CN,100,100,,,
1250,540,2020,9.71,9.5,15.81,0.683,0.88,ITIC,5.48,3.83,1.65,CCCCCCC(C=C1)=CC=C1C2(C3=CC=C(CCCCCC)C=C3)C4=CC5=C(C(C6=C5SC7=C6SC(/C=C8C(C(C=CC=C9)=C9C\8=C(C#N)\C#N)=O)=C7)(C%10=CC=C(CCCCCC)C=C%10)C%11=CC=C(CCCCCC)C=C%11)C=C4C%12=C2C(SC(/C=C%13C(C(C=CC=C%14)=C%14C\%13=C(C#N)/C#N)=O)=C%15)=C%15S%12,1427.96,PBDB-T,5.33,2.92,2.41,CC(SC1=C2C3=CC=C(CC(CC)CCCC)S3)=CC1=C(C4=CC=C(CC(CC)CCCC)S4)C5=C2C=C(S5)C6=CC=C(C7=C8C(C(C9=C(CC(CC)CCCC)SC(CC(CC)CCCC)=C9C8=O)=O)=C(C%10=CC=C(C)S%10)S7)S6,117,58.5,2,1,0.7,CB,DIO,100,100,,,
1251,541,2021,16,15.6,22.5,0.743,0.92,o-BTP-C6Ph,5.53,3.76,1.77,O=C(C(C=C(F)C(F)=C1)=C1C/2=C(C#N)/C#N)C2=C/C3=C(C4=CC=CC=C4CCCCCC)C(SC5=C6N(CC(CC)CCCC)C7=C5C8=NSN=C8C9=C7N(CC(CC)CCCC)C%10=C9SC%11=C%10SC(/C=C%12/C(C%13=C(C%12=O)C=C(F)C(F)=C%13)=C(C#N)\C#N)=C%11C%14=CC=CC=C%14CCCCCC)=C6S3,1463.86,PTQ10,5.53,2.81,2.72,FC1=C(C2=CC=C(C)S2)C3=NC(OCC(CCCCCC)CCCCCCCC)=CN=C3C(C)=C1F,82.11,39.1,2.1,1,1.2,CF,CN,100,,,,
1252,541,2021,17.7,17.3,24.8,0.774,0.878,m-BTP-C6Ph,5.59,3.86,1.73,O=C(C(C=C(F)C(F)=C1)=C1C/2=C(C#N)/C#N)C2=C/C3=C(C4=CC=CC(CCCCCC)=C4)C(SC5=C6N(CC(CC)CCCC)C7=C5C8=NSN=C8C9=C7N(CC(CC)CCCC)C%10=C9SC%11=C%10SC(/C=C%12/C(C%13=C(C%12=O)C=C(F)C(F)=C%13)=C(C#N)\C#N)=C%11C%14=CC=CC(CCCCCC)=C%14)=C6S3,1463.86,PTQ10,5.53,2.81,2.72,FC1=C(C2=CC=C(C)S2)C3=NC(OCC(CCCCCC)CCCCCCCC)=CN=C3C(C)=C1F,82.11,39.1,2.1,1,1.2,CF,CN,100,,,,
1253,541,2021,17.1,16.7,24.3,0.753,0.882,p-BTP-C6Ph,5.59,3.85,1.74,O=C(C(C=C(F)C(F)=C1)=C1C/2=C(C#N)/C#N)C2=C/C3=C(C4=CC=C(CCCCCC)C=C4)C(SC5=C6N(CC(CC)CCCC)C7=C5C8=NSN=C8C9=C7N(CC(CC)CCCC)C%10=C9SC%11=C%10SC(/C=C%12/C(C%13=C(C%12=O)C=C(F)C(F)=C%13)=C(C#N)\C#N)=C%11C%14=CC=C(CCCCCC)C=C%14)=C6S3,1463.86,PTQ10,5.53,2.81,2.72,FC1=C(C2=CC=C(C)S2)C3=NC(OCC(CCCCCC)CCCCCCCC)=CN=C3C(C)=C1F,82.11,39.1,2.1,1,1.2,CF,CN,100,,,,
1254,542,2019,11.32,10.89,18.35,0.6577,0.938,ITC6-IC,5.73,3.92,1.81,CCCCCCC(C=C1)=CC=C1C2(C3=CC=C(CCCCCC)C=C3)C4=CC5=C(C(C6=C5SC7=C6SC(/C=C8C(C(C=CC=C9)=C9C\8=C(C#N)\C#N)=O)=C7CCCCCC)(C%10=CC=C(CCCCCC)C=C%10)C%11=CC=C(CCCCCC)C=C%11)C=C4C%12=C2C(SC(/C=C%13C(C(C=CC=C%14)=C%14C\%13=C(C#N)/C#N)=O)=C%15CCCCCC)=C%15S%12,1596.28,J71,5.4,3.24,2.16,CCC[Si](CCC)(C1=CC=C(C(C2=C3C=C(C4=CC=C(C5=C(F)C(F)=C(C6=CC=C(C)S6)C7=NN(CC(CCCCCC)CCCCCCCC)N=C57)S4)S2)=C8C(SC(C)=C8)=C3C9=CC=C([Si](CCC)(CCC)CCC)S9)S1)CCC,47,23.5,2,1,1,CF,NA,NA,93,,,
1255,542,2019,11.75,11.23,18.71,0.669,0.939,IDIC,5.69,3.98,1.71,O=C(C(C=CC=C1)=C1C/2=C(C#N)\C#N)C2=C/C(S3)=CC4=C3C5=C(C4(CCCCCC)CCCCCC)C=C6C(C(CCCCCC)(CCCCCC)C7=C6SC(/C=C8C(C(C=CC=C9)=C9C\8=C(C#N)/C#N)=O)=C7)=C5,1011.4,PTQ10,5.54,2.98,2.56,FC1=C(C2=CC=C(C)S2)C3=NC(OCC(CCCCCC)CCCCCCCC)=CN=C3C(C)=C1F,82.11,39.1,2.1,1,1,CF,NA,NA,112,,,
1256,542,2019,10.57,10.37,18.37,0.6337,0.908,MeIC,5.57,3.92,1.65,CCCCCCC(C=C1)=CC=C1C2(C3=CC=C(CCCCCC)C=C3)C4=CC5=C(C(C6=C5SC7=C6SC(/C=C8C(C9=C(C)SC=C9C\8=C(C#N)\C#N)=O)=C7)(C%10=CC=C(CCCCCC)C=C%10)C%11=CC=C(CCCCCC)C=C%11)C=C4C%12=C2C(SC(/C=C%13C(C%14=C(C)SC=C%14C\%13=C(C#N)/C#N)=O)=C%15)=C%15S%12,1468.05,J71,5.4,3.24,2.16,CCC[Si](CCC)(C1=CC=C(C(C2=C3C=C(C4=CC=C(C5=C(F)C(F)=C(C6=CC=C(C)S6)C7=NN(CC(CCCCCC)CCCCCCCC)N=C57)S4)S2)=C8C(SC(C)=C8)=C3C9=CC=C([Si](CCC)(CCC)CCC)S9)S1)CCC,47,23.5,2,1,1,CF,NA,NA,103,,,
1257,542,2019,10.46,10.03,17.46,0.6796,0.881,ITCPTC,5.62,3.96,1.66,CCCCCCC(C=C1)=CC=C1C2(C3=CC=C(CCCCCC)C=C3)C4=CC5=C(C(C6=C5SC7=C6SC(/C=C8C(C9=CSC=C9C\8=C(C#N)\C#N)=O)=C7)(C%10=CC=C(CCCCCC)C=C%10)C%11=CC=C(CCCCCC)C=C%11)C=C4C%12=C2C(SC(/C=C%13C(C%14=CSC=C%14C\%13=C(C#N)/C#N)=O)=C%15)=C%15S%12,1440,J71,5.4,3.24,2.16,CCC[Si](CCC)(C1=CC=C(C(C2=C3C=C(C4=CC=C(C5=C(F)C(F)=C(C6=CC=C(C)S6)C7=NN(CC(CCCCCC)CCCCCCCC)N=C57)S4)S2)=C8C(SC(C)=C8)=C3C9=CC=C([Si](CCC)(CCC)CCC)S9)S1)CCC,47,23.5,2,1,1,CF,NA,NA,90,,,
1258,542,2019,10.95,10.55,18.06,0.6575,0.93,ITIC,5.51,3.84,1.67,CCCCCCC(C=C1)=CC=C1C2(C3=CC=C(CCCCCC)C=C3)C4=CC5=C(C(C6=C5SC7=C6SC(/C=C8C(C(C=CC=C9)=C9C\8=C(C#N)\C#N)=O)=C7)(C%10=CC=C(CCCCCC)C=C%10)C%11=CC=C(CCCCCC)C=C%11)C=C4C%12=C2C(SC(/C=C%13C(C(C=CC=C%14)=C%14C\%13=C(C#N)/C#N)=O)=C%15)=C%15S%12,1427.96,J71,5.4,3.24,2.16,CCC[Si](CCC)(C1=CC=C(C(C2=C3C=C(C4=CC=C(C5=C(F)C(F)=C(C6=CC=C(C)S6)C7=NN(CC(CCCCCC)CCCCCCCC)N=C57)S4)S2)=C8C(SC(C)=C8)=C3C9=CC=C([Si](CCC)(CCC)CCC)S9)S1)CCC,47,23.5,2,1,1,CF,NA,NA,102,,,
1259,543,2019,13.01,12.8,19.09,0.7487,0.91,IDIC-2F,5.78,4,1.78,O=C(C(C=C(F)C=C1)=C1C/2=C(C#N)\C#N)C2=C/C(S3)=CC4=C3C5=C(C4(CCCCCC)CCCCCC)C=C6C(C(CCCCCC)(CCCCCC)C7=C6SC(/C=C8C(C(C=CC(F)=C9)=C9C\8=C(C#N)/C#N)=O)=C7)=C5,1047.38,PTQ10,5.54,2.98,2.56,FC1=C(C2=CC=C(C)S2)C3=NC(OCC(CCCCCC)CCCCCCCC)=CN=C3C(C)=C1F,47.257,30.1,1.57,1,1,CF,NA,110,100,,,
1260,543,2019,12.44,12.2,17.43,0.7434,0.96,IDIC,5.69,3.98,1.71,O=C(C(C=CC=C1)=C1C/2=C(C#N)\C#N)C2=C/C(S3)=CC4=C3C5=C(C4(CCCCCC)CCCCCC)C=C6C(C(CCCCCC)(CCCCCC)C7=C6SC(/C=C8C(C(C=CC=C9)=C9C\8=C(C#N)/C#N)=O)=C7)=C5,1011.4,PTQ10,5.54,2.98,2.56,FC1=C(C2=CC=C(C)S2)C3=NC(OCC(CCCCCC)CCCCCCCC)=CN=C3C(C)=C1F,47.257,30.1,1.57,1,1,CF,NA,110,100,,,
1261,543,2019,16.52,16.3,25.65,0.762,0.82,Y6,5.65,4.1,1.55,O=C(C(C=C(F)C(F)=C1)=C1C/2=C(C#N)/C#N)C2=C/C3=C(CCCCCCCCCCC)C(SC4=C5N(CC(CC)CCCC)C6=C4C7=NSN=C7C8=C6N(CC(CC)CCCC)C9=C8SC%10=C9SC(/C=C%11/C(C%12=C(C%11=O)C=C(F)C(F)=C%12)=C(C#N)\C#N)=C%10CCCCCCCCCCC)=C5S3,1451.94,PM6,5.5,3.61,1.89,CC(SC1=C2C3=CC(F)=C(CC(CC)CCCC)S3)=CC1=C(C4=CC(F)=C(CC(CC)CCCC)S4)C5=C2C=C(S5)C6=CC=C(C7=C8C(C(C9=C(CC(CC)CCCC)SC(CC(CC)CCCC)=C9C8=O)=O)=C(C%10=CC=C(C)S%10)S7)S6,38.6,19.3,2,1,1.2,CF,CN,110,100,,,
1262,544,2019,3.68,3.49,6.51,0.5413,1.04,DF-PCIC,5.49,2.98,2.51,O=C(C(C=CC=C1)=C1C/2=C(C#N)/C#N)C2=C/C3=CC(C4(CC(CC)CCCC)CC(CC)CCCC)=C(S3)C5=C4C=C(S5)C6=C(F)C=C(C(S7)=CC8=C7C(SC(/C=C9C(C(C=CC=C%10)=C%10C\9=C(C#N)\C#N)=O)=C%11)=C%11C8(CC(CC)CCCC)CC(CC)CCCC)C(F)=C6,1323.84,PTQ10,5.54,2.98,2.56,FC1=C(C2=CC=C(C)S2)C3=NC(OCC(CCCCCC)CCCCCCCC)=CN=C3C(C)=C1F,82.11,39.1,2.1,1.2,1,CF,DIO,100,,,,