ID,Ref,year,PCE_max(%),PCE_ave(%),Jsc(mA/cm2),FF,Voc(V),Nickname(n),-HOMO_n(eV),-LUMO_n(eV),Eg_n(eV),n(SMILES),M (g/mol),Nickname(p),-HOMO_p(eV),-LUMO_p(eV),Eg_p(eV),p(SMILES),Mw (kg/mol),Mn(kg/mol),PDI,p/n ratio (p),p/n ratio (n),Solvent,Additive,TA (oC),thick (nm),,Journal,DOI
779,354,2019,3.95,3.78,9.03,0.45,0.93,ITIC,5.61,3.94,1.67,CCCCCCC(C=C1)=CC=C1C2(C3=CC=C(CCCCCC)C=C3)C4=CC5=C(C(C6=C5SC7=C6SC(/C=C8C(C(C=CC=C9)=C9C\8=C(C#N)\C#N)=O)=C7)(C%10=CC=C(CCCCCC)C=C%10)C%11=CC=C(CCCCCC)C=C%11)C=C4C%12=C2C(SC(/C=C%13C(C(C=CC=C%14)=C%14C\%13=C(C#N)/C#N)=O)=C%15)=C%15S%12,1427.96,PDFQx-2TB,5.56,3.65,1.91,CC1=C(F)C(F)=C(C2=CC=C(C3=CC=C(C4=CC=C(C)S4)S3)S2)C5=NC(C6=CC(OCCCCCCCC)=C(OCCCCCCCC)C=C6)=C(C7=CC=C(OCCCCCCCC)C(OCCCCCCCC)=C7)N=C51,176.4,36,4.9,1.3,1,CB,DIO,NA,,,,
780,354,2019,8.13,7.8,16.6,0.58,0.82,ITIC,5.61,3.94,1.67,CCCCCCC(C=C1)=CC=C1C2(C3=CC=C(CCCCCC)C=C3)C4=CC5=C(C(C6=C5SC7=C6SC(/C=C8C(C(C=CC=C9)=C9C\8=C(C#N)\C#N)=O)=C7)(C%10=CC=C(CCCCCC)C=C%10)C%11=CC=C(CCCCCC)C=C%11)C=C4C%12=C2C(SC(/C=C%13C(C(C=CC=C%14)=C%14C\%13=C(C#N)/C#N)=O)=C%15)=C%15S%12,1427.96,PDFQx-3T,5.4,3.67,1.73,CC1=C(F)C(F)=C(C2=CC=C(C3=CC=C(C4=CC=C(C)S4)C=C3)S2)C5=NC(C6=CC(OCCCCCCCC)=C(OCCCCCCCC)C=C6)=C(C7=CC=C(OCCCCCCCC)C(OCCCCCCCC)=C7)N=C51,304.5,87,3.5,1,1,CB,DIO,90,,,,
781,355,2019,9.79,9.45,16.53,0.5979,0.99,IDIDTT,5.5,3.84,1.66,CCCCCCC(C=C1)=CC=C1C2(C3=CC=C(CCCCCC)C=C3)C4=C(C=C(C5(CCCCCCCC)CCCCCCCC)C(C6=C5C(C7(CCCCCCCC)CCCCCCCC)=C(C8=CC(C(C(C=C9)=CC=C9CCCCCC)(C%10=C%11SC(/C=C%12/C(C%13=C(C%12=O)C=CC=C%13)=C(C#N)/C#N)=C%10)C(C=C%14)=CC=C%14CCCCCC)=C%11C=C78)S6)=C4)C%15=C2C=C(/C=C%16C(C(C=CC=C%17)=C%17C\%16=C(C#N)\C#N)=O)S%15,1946.9,PBDB-T,5.23,3.42,1.81,CC(SC1=C2C3=CC=C(CC(CC)CCCC)S3)=CC1=C(C4=CC=C(CC(CC)CCCC)S4)C5=C2C=C(S5)C6=CC=C(C7=C8C(C(C9=C(CC(CC)CCCC)SC(CC(CC)CCCC)=C9C8=O)=O)=C(C%10=CC=C(C)S%10)S7)S6,117,58.5,2,1,1,DCB,DIO,NA,,,,
782,355,2019,11.29,10.95,19.79,0.6185,0.92,IDIDTT-2F,5.51,3.96,1.55,CCCCCCC(C=C1)=CC=C1C2(C3=CC=C(CCCCCC)C=C3)C4=C(C=C(C5(CCCCCCCC)CCCCCCCC)C(C6=C5C(C7(CCCCCCCC)CCCCCCCC)=C(C8=CC(C(C(C=C9)=CC=C9CCCCCC)(C%10=C%11SC(/C=C%12/C(C%13=C(C%12=O)C=C(F)C(F)=C%13)=C(C#N)/C#N)=C%10)C(C=C%14)=CC=C%14CCCCCC)=C%11C=C78)S6)=C4)C%15=C2C=C(/C=C%16C(C(C=C(F)C(F)=C%17)=C%17C\%16=C(C#N)\C#N)=O)S%15,2018.86,PBDB-T,5.23,3.42,1.81,CC(SC1=C2C3=CC=C(CC(CC)CCCC)S3)=CC1=C(C4=CC=C(CC(CC)CCCC)S4)C5=C2C=C(S5)C6=CC=C(C7=C8C(C(C9=C(CC(CC)CCCC)SC(CC(CC)CCCC)=C9C8=O)=O)=C(C%10=CC=C(C)S%10)S7)S6,117,58.5,2,1,1,DCB,CBA,NA,,,,
783,356,2019,9.23,9.02,15.19,0.6637,0.89,m-ITIC,5.52,3.82,1.7,O=C(C(C=CC=C1)=C1C/2=C(C#N)\C#N)C2=C/C3=CC(S4)=C(S3)C5=C4C6=CC(C(C7=C8SC9=C7SC(/C=C%10C(C(C=CC=C%11)=C%11C\%10=C(C#N)\C#N)=O)=C9)(C%12=CC=CC(CCCCCC)=C%12)C%13=CC(CCCCCC)=CC=C%13)=C8C=C6C(C%14=CC(CCCCCC)=CC=C%14)5C%15=CC=CC(CCCCCC)=C%15,1427.96,PBTzNT,5.35,3.02,2.33,CCCCC(CC)CC(S1)=CC=C1C2=C3C(C=C(S3)C4=CC=C(C5=CC6=C(C=C(C7=CC=C(C)S7)C8=NN(CC(CCCC)CCCCCC)N=C86)C9=NN(CC(CCCCCC)CCCC)N=C59)S4)=C(C%10=CC=C(CC(CC)CCCC)S%10)C%11=C2C=C(C)S%11,78.993,39.3,2.01,1,1,CB,CN,100,100,,,
784,356,2019,11.02,10.85,16.98,0.6872,0.91,m-ITIC,5.52,3.82,1.7,O=C(C(C=CC=C1)=C1C/2=C(C#N)\C#N)C2=C/C3=CC(S4)=C(S3)C5=C4C6=CC(C(C7=C8SC9=C7SC(/C=C%10C(C(C=CC=C%11)=C%11C\%10=C(C#N)\C#N)=O)=C9)(C%12=CC=CC(CCCCCC)=C%12)C%13=CC(CCCCCC)=CC=C%13)=C8C=C6C(C%14=CC(CCCCCC)=CC=C%14)5C%15=CC=CC(CCCCCC)=C%15,1427.96,PFBTzNT,5.47,3.2,2.27,CCCCC(CC)CC(S1)=C(F)C=C1C2=C3C(C=C(S3)C4=CC=C(C5=CC6=C(C=C(C7=CC=C(C)S7)C8=NN(CC(CCCC)CCCCCC)N=C86)C9=NN(CC(CCCCCC)CCCC)N=C59)S4)=C(C%10=CC(F)=C(CC(CC)CCCC)S%10)C%11=C2C=C(C)S%11,65.49,37,1.77,1,1,CB,CN,100,100,,,
785,357,2018,6.1,6,11.13,0.65,0.83,ITIC,5.26,3.08,2.18,CCCCCCC(C=C1)=CC=C1C2(C3=CC=C(CCCCCC)C=C3)C4=CC5=C(C(C6=C5SC7=C6SC(/C=C8C(C(C=CC=C9)=C9C\8=C(C#N)\C#N)=O)=C7)(C%10=CC=C(CCCCCC)C=C%10)C%11=CC=C(CCCCCC)C=C%11)C=C4C%12=C2C(SC(/C=C%13C(C(C=CC=C%14)=C%14C\%13=C(C#N)/C#N)=O)=C%15)=C%15S%12,1427.96,J51,5.48,3.83,1.65,CC1=CC(C(S1)=C2C3=CC=C(CC(CCCCCC)CCCCCCCC)S3)=C(C4=C2C=C(C5=CC=C(C6=C(F)C(F)=C(C7=CC=C(C)S7)C8=NN(CCCCCCCC)N=C68)S5)S4)C9=CC=C(CC(CCCCCC)CCCCCCCC)S9,140,70,2,1,1,CB,DIO,NA,,,,
786,357,2018,7.67,7.46,14.59,0.58,0.89,ITIC,5.26,3.08,2.18,CCCCCCC(C=C1)=CC=C1C2(C3=CC=C(CCCCCC)C=C3)C4=CC5=C(C(C6=C5SC7=C6SC(/C=C8C(C(C=CC=C9)=C9C\8=C(C#N)\C#N)=O)=C7)(C%10=CC=C(CCCCCC)C=C%10)C%11=CC=C(CCCCCC)C=C%11)C=C4C%12=C2C(SC(/C=C%13C(C(C=CC=C%14)=C%14C\%13=C(C#N)/C#N)=O)=C%15)=C%15S%12,1427.96,PBDB-T,5.33,3.53,1.8,CC(SC1=C2C3=CC=C(CC(CC)CCCC)S3)=CC1=C(C4=CC=C(CC(CC)CCCC)S4)C5=C2C=C(S5)C6=CC=C(C7=C8C(C(C9=C(CC(CC)CCCC)SC(CC(CC)CCCC)=C9C8=O)=O)=C(C%10=CC=C(C)S%10)S7)S6,117,58.5,2,1,1,CB,DIO,NA,,,,
787,358,2018,7.54,7.41,13.03,0.6221,0.93,A401,5.43,3.53,1.9,CCCCCCC(C=C1)=CC=C1C(C2=C3SC(C4=CC(C5=CC=C(/C=C6C(C(C=CC=C7)=C7C\6=C(C#N)\C#N)=O)S5)=C(C8=CC=C(/C=C9C(C(C=CC=C%10)=C%10C\9=C(C#N)\C#N)=O)S8)S4)=C2)(C%11=CC=C(CCCCCC)C=C%11)C%12=C3C=C(C(C%13=C%14SC(C%15=CC(C%16=CC=C(/C=C%17C(C(C=CC=C%18)=C%18C\%17=C(C#N)\C#N)=O)S%16)=C(C%19=CC=C(/C=C%20C(C(C=CC=C%21)=C%21C\%20=C(C#N)\C#N)=O)S%19)S%15)=C%13)(C%22=CC=C(CCCCCC)C=C%22)C%23=CC=C(CCCCCC)C=C%23)C%14=C%12,2216.89,PBDB-T,5.31,3.55,1.76,CC(SC1=C2C3=CC=C(CC(CC)CCCC)S3)=CC1=C(C4=CC=C(CC(CC)CCCC)S4)C5=C2C=C(S5)C6=CC=C(C7=C8C(C(C9=C(CC(CC)CCCC)SC(CC(CC)CCCC)=C9C8=O)=O)=C(C%10=CC=C(C)S%10)S7)S6,117,58.5,2,1,1,CB,CN,140,,,,
788,359,2019,7.6,7.6,14.2,0.531,1.01,O-IDTBR,5.5,3.8,1.7,O=C(/C(S1)=C/C(C2=NSN=C32)=CC=C3C(S4)=CC5=C4C6=CC(C(CCCCCCCC)(CCCCCCCC)C7=C8SC(C9=CC=C(/C=C%10SC(N(CC)C\%10=O)=S)C%11=NSN=C9%11)=C7)=C8C=C6C5(CCCCCCCC)CCCCCCCC)N(CC)C1=S,1326.02,PBDB-T,5.33,2.92,2.41,CC(SC1=C2C3=CC=C(CC(CC)CCCC)S3)=CC1=C(C4=CC=C(CC(CC)CCCC)S4)C5=C2C=C(S5)C6=CC=C(C7=C8C(C(C9=C(CC(CC)CCCC)SC(CC(CC)CCCC)=C9C8=O)=O)=C(C%10=CC=C(C)S%10)S7)S6,117,58.5,2,1,1,CB,NA,80,,,,
789,360,2018,3.78,3.01,10.87,0.432,0.803,ITIC,5.48,3.83,1.65,CCCCCCC(C=C1)=CC=C1C2(C3=CC=C(CCCCCC)C=C3)C4=CC5=C(C(C6=C5SC7=C6SC(/C=C8C(C(C=CC=C9)=C9C\8=C(C#N)\C#N)=O)=C7)(C%10=CC=C(CCCCCC)C=C%10)C%11=CC=C(CCCCCC)C=C%11)C=C4C%12=C2C(SC(/C=C%13C(C(C=CC=C%14)=C%14C\%13=C(C#N)/C#N)=O)=C%15)=C%15S%12,1427.96,J52,5.39,3.46,1.93,CC1=CC(C(S1)=C2C3=CC=C(CC(CC)CCCC)S3)=C(C4=C2C=C(C5=CC=C(C6=C(F)C(F)=C(C7=CC=C(C)S7)C8=NN(CC(CCCCCC)CCCCCCCC)N=C68)S5)S4)C9=CC=C(CC(CC)CCCC)S9,26.7244,18.82,1.42,1,1.5,CF,NA,NA,,,,
790,360,2018,11.53,10.9,17.17,0.702,0.956,ITIC,5.48,3.83,1.65,CCCCCCC(C=C1)=CC=C1C2(C3=CC=C(CCCCCC)C=C3)C4=CC5=C(C(C6=C5SC7=C6SC(/C=C8C(C(C=CC=C9)=C9C\8=C(C#N)\C#N)=O)=C7)(C%10=CC=C(CCCCCC)C=C%10)C%11=CC=C(CCCCCC)C=C%11)C=C4C%12=C2C(SC(/C=C%13C(C(C=CC=C%14)=C%14C\%13=C(C#N)/C#N)=O)=C%15)=C%15S%12,1427.96,J52-2Cl,5.53,3.59,1.94,CC1=CC(C(S1)=C2C3=CC(Cl)=C(CC(CC)CCCC)S3)=C(C4=C2C=C(C5=CC=C(C6=C(F)C(F)=C(C7=CC=C(C)S7)C8=NN(CC(CCCCCC)CCCCCCCC)N=C68)S5)S4)C9=CC(Cl)=C(CC(CC)CCCC)S9,61.662,25.84,2.38630031,1,1.5,CF,NA,NA,,,,
791,361,2018,10.3,9.98,19.84,0.651,0.772,FNIC1,5.61,3.92,1.69,O=C1C(C=C(F)C(F)=C2)=C2C(/C1=C/C3=CC(C(C4=CC=C(CCCCCC)C=C4)(C5=C6SC7=C5SC8=C7C(C9=CC=C(CCCCCC)S9)=C(SC%10=C%11SC%12=C%10C(C%13=C%12SC(/C=C%14/C(C%15=C(C=C(F)C(F)=C%15)C%14=O)=C(C#N)\C#N)=C%13)(C%16=CC=C(CCCCCC)C=C%16)C%17=CC=C(CCCCCC)C=C%17)C%11=C8C%18=CC=C(CCCCCC)S%18)C%19=CC=C(CCCCCC)C=C%19)=C6S3)=C(C#N)/C#N,1944.65,PTB7-Th,5.22,3.4,1.82,O=C(OCC(CC)CCCC)C1=C(F)C2=C(C)SC(C3=CC4=C(C(C5=CC=C(CC(CC)CCCC)S5)=C(C=C(C)S6)C6=C4C7=CC=C(CC(CC)CCCC)S7)S3)=C2S1,124,72.9,1.700960219,1,1,DCB,NA,NA,100,,,
792,361,2018,13,12.7,23.81,0.727,0.732,FNIC2,5.57,4,1.57,O=C1C(C=C(F)C(F)=C2)=C2C(/C1=C/C(S3)=CC4=C3C(C5(C(C=C6)=CC=C6CCCCCC)C(C=C7)=CC=C7CCCCCC)=C(C8=C5C9=C(S8)C(C%10=CC=C(S%10)CCCCCC)=C%11C%12=C(C(SC%13=C%14SC(/C=C%15/C(C%16=C(C=C(F)C(F)=C%16)C%15=O)=C(C#N)\C#N)=C%13)=C%14C(C(C=C%17)=CC=C%17CCCCCC)%12C(C=C%18)=CC=C%18CCCCCC)SC%11=C9C(S%19)=CC=C%19CCCCCC)S4)=C(C#N)/C#N,1944.65,PTB7-Th,5.22,3.4,1.82,O=C(OCC(CC)CCCC)C1=C(F)C2=C(C)SC(C3=CC4=C(C(C5=CC=C(CC(CC)CCCC)S5)=C(C=C(C)S6)C6=C4C7=CC=C(CC(CC)CCCC)S7)S3)=C2S1,124,72.9,1.700960219,1,1,DCB,NA,NA,100,,,
793,362,2019,14.7,14.4,21.5,0.75,0.91,IT-4F,5.66,4.19,1.47,CCCCCCC(C=C1)=CC=C1C2(C3=CC=C(CCCCCC)C=C3)C4=CC5=C(C(C6=C5SC7=C6SC(/C=C8C(C(C=C(F)C(F)=C9)=C9C\8=C(C#N)\C#N)=O)=C7)(C%10=CC=C(CCCCCC)C=C%10)C%11=CC=C(CCCCCC)C=C%11)C=C4C%12=C2C(SC(/C=C%13C(C(C=C(F)C(F)=C%14)=C%14C\%13=C(C#N)/C#N)=O)=C%15)=C%15S%12,1499.92,PTO2,5.59,3.67,1.92,CC(SC1=C2C3=CC(F)=C(CC(CC)CCCC)S3)=CC1=C(C4=CC(F)=C(CC(CC)CCCC)S4)C5=C2C=C(C6=CC(C(OCC)=O)=C(C)S6)S5,70.2,27,2.6,1,1,CB,DIO,100,,,,
794,363,2018,9.72,9.58,15.65,0.7105,0.875,IDIC,5.69,3.91,1.78,O=C(C(C=CC=C1)=C1C/2=C(C#N)\C#N)C2=C/C(S3)=CC4=C3C5=C(C4(CCCCCC)CCCCCC)C=C6C(C(CCCCCC)(CCCCCC)C7=C6SC(/C=C8C(C(C=CC=C9)=C9C\8=C(C#N)/C#N)=O)=C7)=C5,1011.4,PzNDT-T-BDD,5.24,3.46,1.78,CC1=CC2=C(C3=CC=C(SCC(CC)CCCC)S3)C=C(C4=C5C=C(C6=C(CCCCCCCC)C=C(C7=C8C(C(C9=C(CC(CC)CCCC)SC(CC(CC)CCCC)=C9C8=O)=O)=C(C%10=CC(CCCCCCCC)=C(C)S%10)S7)S6)S4)C(C=C5C%11=CC=C(SCC(CC)CCCC)S%11)=C2S1,53.74,21.91,2.452761296,1,1,CF,NA,100,,,,
795,363,2018,8.12,8.2,15.15,0.5965,0.907,IDIC,5.69,3.91,1.78,O=C(C(C=CC=C1)=C1C/2=C(C#N)\C#N)C2=C/C(S3)=CC4=C3C5=C(C4(CCCCCC)CCCCCC)C=C6C(C(CCCCCC)(CCCCCC)C7=C6SC(/C=C8C(C(C=CC=C9)=C9C\8=C(C#N)/C#N)=O)=C7)=C5,1011.4,PzNDT-TT-BDD,5.29,3.4,1.89,CC1=CC2=C(C3=CC=C(SCC(CC)CCCC)S3)C=C(C4=C5C=C(C6=C(CCCCCCCC)C(SC(C7=C8C(C(C9=C(CC(CC)CCCC)SC(CC(CC)CCCC)=C9C8=O)=O)=C(C(S%10)=CC%11=C%10C(CCCCCCCC)=C(C)S%11)S7)=C%12)=C%12S6)S4)C(C=C5C%13=CC=C(SCC(CC)CCCC)S%13)=C2S1,39.83,21.27,1.872590503,1,1,CF,NA,100,,,,
796,363,2018,4.62,4.57,10.63,0.4693,0.925,IDIC,5.69,3.91,1.78,O=C(C(C=CC=C1)=C1C/2=C(C#N)\C#N)C2=C/C(S3)=CC4=C3C5=C(C4(CCCCCC)CCCCCC)C=C6C(C(CCCCCC)(CCCCCC)C7=C6SC(/C=C8C(C(C=CC=C9)=C9C\8=C(C#N)/C#N)=O)=C7)=C5,1011.4,PzNDTP-T-BDD,5.34,3.46,1.88,CC1=CC2=C(C3=CC=C(SCC(CC)CCCC)C=C3)C=C(C4=C5C=C(C6=C(CCCCCCCC)C=C(C7=C8C(C(C9=C(CC(CC)CCCC)SC(CC(CC)CCCC)=C9C8=O)=O)=C(C%10=CC(CCCCCCCC)=C(C)S%10)S7)S6)S4)C(C=C5C%11=CC=C(SCC(CC)CCCC)C=C%11)=C2S1,68.53,28.99,2.363918593,1,1,CF,NA,100,,,,
797,364,2019,8.5,8.3,15.3,0.588,0.95,IDIC,5.69,3.91,1.78,O=C(C(C=CC=C1)=C1C/2=C(C#N)\C#N)C2=C/C(S3)=CC4=C3C5=C(C4(CCCCCC)CCCCCC)C=C6C(C(CCCCCC)(CCCCCC)C7=C6SC(/C=C8C(C(C=CC=C9)=C9C\8=C(C#N)/C#N)=O)=C7)=C5,1011.4,PBBF,5.52,3.47,2.05,CC(SC1=C2C3=CC=C(CC(CC)CCCC)S3)=CC1=C(C4=CC=C(CC(CC)CCCC)S4)C5=C2C=C(C(SC6=C7C8=CC(F)=C(CC(CC)CCCC)S8)=CC6=C(C9=CC(F)=C(CC(CC)CCCC)S9)C%10=C7C=C(C)S%10)S5,72.688,30.8,2.36,1,1,CF,NA,NA,,,,
798,364,2019,5.3,5.1,13.7,0.439,0.88,IDIC,5.69,3.91,1.78,O=C(C(C=CC=C1)=C1C/2=C(C#N)\C#N)C2=C/C(S3)=CC4=C3C5=C(C4(CCCCCC)CCCCCC)C=C6C(C(CCCCCC)(CCCCCC)C7=C6SC(/C=C8C(C(C=CC=C9)=C9C\8=C(C#N)/C#N)=O)=C7)=C5,1011.4,PBDTT,5.45,3.32,2.13,CC(SC1=C2C3=CC=C(CC(CC)CCCC)S3)=CC1=C(C4=CC=C(CC(CC)CCCC)S4)C5=C2C=C(C)S5,53.24,24.2,2.2,1,1,CF,NA,NA,,,,
799,365,2019,7.4,7.3,14.1,0.65,0.81,IT-M,5.58,3.98,1.6,CCCCCCC(C=C1)=CC=C1C2(C3=CC=C(CCCCCC)C=C3)C4=CC5=C(C(C6=C5SC7=C6SC(/C=C8C(C(C=CC(C)=C9)=C9C\8=C(C#N)\C#N)=O)=C7)(C%10=CC=C(CCCCCC)C=C%10)C%11=CC=C(CCCCCC)C=C%11)C=C4C%12=C2C(SC(/C=C%13C(C(C=CC(C)=C%14)=C%14C\%13=C(C#N)/C#N)=O)=C%15)=C%15S%12,1456.01,PNQx-2F2THW,5.3,3.37,1.93,CC(S1)=CC(F)=C1C(S2)=C(F)C=C2C(S3)=CC=C3C(C4=C5N=C(C6=CC=CC(OCC(CC)CCCC)=C6)C(C7=CC(OCC(CC)CCCC)=CC=C7)=N4)=CC8=C5C=C(C9=CC=C(C)S9)C%10=C8N=C(C%11=CC=CC(OCC(CC)CCCC)=C%11)C(C%12=CC(OCC(CC)CCCC)=CC=C%12)=N%10,96,38.4,2.5,1,1,CB,DIO,120,100,,,
800,365,2019,7.5,7.4,14.3,0.66,0.8,IT-M,5.58,3.98,1.6,CCCCCCC(C=C1)=CC=C1C2(C3=CC=C(CCCCCC)C=C3)C4=CC5=C(C(C6=C5SC7=C6SC(/C=C8C(C(C=CC(C)=C9)=C9C\8=C(C#N)\C#N)=O)=C7)(C%10=CC=C(CCCCCC)C=C%10)C%11=CC=C(CCCCCC)C=C%11)C=C4C%12=C2C(SC(/C=C%13C(C(C=CC(C)=C%14)=C%14C\%13=C(C#N)/C#N)=O)=C%15)=C%15S%12,1456.01,PNQx-2F2TLW,5.28,3.38,1.9,CC(S1)=CC(F)=C1C(S2)=C(F)C=C2C(S3)=CC=C3C(C4=C5N=C(C6=CC=CC(OCC(CC)CCCC)=C6)C(C7=CC(OCC(CC)CCCC)=CC=C7)=N4)=CC8=C5C=C(C9=CC=C(C)S9)C%10=C8N=C(C%11=CC=CC(OCC(CC)CCCC)=C%11)C(C%12=CC(OCC(CC)CCCC)=CC=C%12)=N%10,33.06,17.4,1.9,1,1,CB,DIO,120,100,,,
801,366,2018,6.36,6.25,13.12,0.589,0.82,COi7IC,5.66,3.92,1.74,CCCCCCC(C=C1)=CC=C1C2(C(C(SC(/C=C3C(C(C=CC=C4)=C4C\3=C(C#N)/C#N)=O)=C5)=C5S6)=C6C7=CC(O8)=C(C9=C(C8(C%10=CC=C(CCCCCC)C=C%10)C%11=CC=C(CCCCCC)C=C%11)C(SC(/C=C%12C(C(C=CC=C%13)=C%13C\%12=C(C#N)\C#N)=O)=C%14)=C%14S9)C=C7O2)C%15=CC=C(CCCCCC)C=C%15,1459.95,PTB7-Th,5.38,3.11,2.27,O=C(OCC(CC)CCCC)C1=C(F)C2=C(C)SC(C3=CC4=C(C(C5=CC=C(CC(CC)CCCC)S5)=C(C=C(C)S6)C6=C4C7=CC=C(CC(CC)CCCC)S7)S3)=C2S1,124,72.9,1.700960219,1,1.4,DCB,DIO,NA,105,,,
802,366,2018,8.32,8,17.36,0.719,0.67,COi7DFIC,5.78,4.06,1.72,CCCCCCC(C=C1)=CC=C1C2(C(C(SC(/C=C3C(C(C=C(F)C(F)=C4)=C4C\3=C(C#N)/C#N)=O)=C5)=C5S6)=C6C7=CC(O8)=C(C9=C(C8(C%10=CC=C(CCCCCC)C=C%10)C%11=CC=C(CCCCCC)C=C%11)C(SC(/C=C%12C(C(C=C(F)C(F)=C%13)=C%13C\%12=C(C#N)\C#N)=O)=C%14)=C%14S9)C=C7O2)C%15=CC=C(CCCCCC)C=C%15,1531.92,PTB7-Th,5.38,3.11,2.27,O=C(OCC(CC)CCCC)C1=C(F)C2=C(C)SC(C3=CC4=C(C(C5=CC=C(CC(CC)CCCC)S5)=C(C=C(C)S6)C6=C4C7=CC=C(CC(CC)CCCC)S7)S3)=C2S1,124,72.9,1.700960219,1,1.4,DCB,DIO,NA,105,,,
803,367,2018,11.63,11.59,18.16,0.7262,0.86,DF-PCNC,5.42,3.81,1.61,O=C(C(C=C1C(C=CC=C1)=C2)=C2C/3=C(C#N)/C#N)C3=C/C4=CC(C5(CC(CC)CCCC)CC(CC)CCCC)=C(S4)C6=C5C=C(S6)C7=C(F)C=C(C(S8)=CC9=C8C(SC(/C=C%10C(C(C=C%11C(C=CC=C%11)=C%12)=C%12C\%10=C(C#N)\C#N)=O)=C%13)=C%13C9(CC(CC)CCCC)CC(CC)CCCC)C(F)=C7,1423.96,PBDB-T,5.33,3.53,1.8,CC(SC1=C2C3=CC=C(CC(CC)CCCC)S3)=CC1=C(C4=CC=C(CC(CC)CCCC)S4)C5=C2C=C(S5)C6=CC=C(C7=C8C(C(C9=C(CC(CC)CCCC)SC(CC(CC)CCCC)=C9C8=O)=O)=C(C%10=CC=C(C)S%10)S7)S6,117,58.5,2,1,1.2,CF,CN,100,,,,
804,368,2019,3.53,3.41,6.29,0.525,1.04,H-IDTzR,5.31,3.42,1.89,CCCCCCC(C1=C2SC(C3=NC=C(/C=C4SC(N(C/4=O)CC)=S)S3)=C1)(CCCCCC)C5=C2C=C(C(CCCCCC)(CCCCCC)C6=C7SC(C8=NC=C(/C=C9SC(N(C/9=O)CC)=S)S8)=C6)C7=C5,1111.7,P3HT,5,3.1,1.9,CC1=CC(CCCCCC)=C(C)S1,21.1,11.6,1.82,1,1,CF,NA,130,100,,,
805,368,2019,5.01,4.88,8.36,0.546,1.02,P-IDTzR,5.31,3.44,1.87,CCCCCCC(C=C1)=CC=C1C(C2=C3SC(C4=NC=C(/C=C5SC(N(C/5=O)CC)=S)S4)=C2)(C6=CC=C(CCCCCC)C=C6)C7=C3C=C(C(C8=C9SC(C%10=NC=C(/C=C%11SC(N(C/%11=O)CC)=S)S%10)=C8)(C%12=CC=C(CCCCCC)C=C%12)C%13=CC=C(CCCCCC)C=C%13)C9=C7,1416.1,P3HT,5,3.1,1.9,CC1=CC(CCCCCC)=C(C)S1,21.1,11.6,1.818965517,1,1,CF,NA,130,100,,,
806,369,2019,11.08,10.83,17.55,0.6728,0.939,ITIC,5.48,3.84,1.64,CCCCCCC(C=C1)=CC=C1C2(C3=CC=C(CCCCCC)C=C3)C4=CC5=C(C(C6=C5SC7=C6SC(/C=C8C(C(C=CC=C9)=C9C\8=C(C#N)\C#N)=O)=C7)(C%10=CC=C(CCCCCC)C=C%10)C%11=CC=C(CCCCCC)C=C%11)C=C4C%12=C2C(SC(/C=C%13C(C(C=CC=C%14)=C%14C\%13=C(C#N)/C#N)=O)=C%15)=C%15S%12,1427.96,J71,5.4,3.24,2.16,CCC[Si](CCC)(C1=CC=C(C(C2=C3C=C(C4=CC=C(C5=C(F)C(F)=C(C6=CC=C(C)S6)C7=NN(CC(CCCCCC)CCCCCCCC)N=C57)S4)S2)=C8C(SC(C)=C8)=C3C9=CC=C([Si](CCC)(CCC)CCC)S9)S1)CCC,139,56.2,2.473309609,1,1,CF,NA,150,100,,,
807,370,2019,8.33,8.04,13.97,0.596,1,IT-M,5.58,3.98,1.6,CCCCCCC(C=C1)=CC=C1C2(C3=CC=C(CCCCCC)C=C3)C4=CC5=C(C(C6=C5SC7=C6SC(/C=C8C(C(C=CC(C)=C9)=C9C\8=C(C#N)\C#N)=O)=C7)(C%10=CC=C(CCCCCC)C=C%10)C%11=CC=C(CCCCCC)C=C%11)C=C4C%12=C2C(SC(/C=C%13C(C(C=CC(C)=C%14)=C%14C\%13=C(C#N)/C#N)=O)=C%15)=C%15S%12,1456.01,PBD,5.54,2.81,2.73,CC(SC1=C2C3=CC=C(CC(CC)CCCC)S3)=CC1=C(C4=CC=C(CC(CC)CCCC)S4)C5=C2C=C(C6=CC7=C(C(SC(C)=C8)=C8N(CC(CCCCCC)CCCCCCCC)C7=O)S6)S5,96.096,31.2,3.08,1,1.8,CB,DIO,NA,106,,,
808,370,2019,10.34,10.02,15.95,0.728,0.89,IT-M,5.58,3.98,1.6,CCCCCCC(C=C1)=CC=C1C2(C3=CC=C(CCCCCC)C=C3)C4=CC5=C(C(C6=C5SC7=C6SC(/C=C8C(C(C=CC(C)=C9)=C9C\8=C(C#N)\C#N)=O)=C7)(C%10=CC=C(CCCCCC)C=C%10)C%11=CC=C(CCCCCC)C=C%11)C=C4C%12=C2C(SC(/C=C%13C(C(C=CC(C)=C%14)=C%14C\%13=C(C#N)/C#N)=O)=C%15)=C%15S%12,1456.01,PBD2T,5.4,2.7,2.7,CC(SC1=C2C3=CC=C(CC(CC)CCCC)S3)=CC1=C(C4=CC=C(CC(CC)CCCC)S4)C5=C2C=C(C6=C(CCCCCCCC)C=C(C7=CC8=C(C(SC(C9=CC(CCCCCCCC)=C(C)S9)=C%10)=C%10N(CC(CCCCCC)CCCCCCCC)C8=O)S7)S6)S5,139.725,57.5,2.43,1,1.8,CB,DIO,NA,103,,,
809,371,2019,5.58,5.37,14.19,0.674,0.58,CO5DFIC,5.96,4.29,1.67,CCCCCCC(C=C1)=CC=C1C2(C3=CC(C4=C(O5)C=C(/C=C6C(C(C=C(F)C(F)=C7)=C7C\6=C(C#N)\C#N)=O)S4)=C(C5(C8=CC=C(CCCCCC)C=C8)C9=CC=C(CCCCCC)C=C9)C=C3C%10=C(O2)C=C(/C=C%11C(C(C=C(F)C(F)=C%12)=C%12C\%11=C(C#N)/C#N)=O)S%10)C%13=CC=C(CCCCCC)C=C%13,1419.75,PTB7-Th,5.39,3.12,2.27,O=C(OCC(CC)CCCC)C1=C(F)C2=C(C)SC(C3=CC4=C(C(C5=CC=C(CC(CC)CCCC)S5)=C(C=C(C)S6)C6=C4C7=CC=C(CC(CC)CCCC)S7)S3)=C2S1,124,72.9,1.700960219,1,1,CB,CN,NA,90,,,
810,371,2019,7.66,7.37,17.58,0.61,0.71,CO5DFIC-OT,5.51,3.95,1.56,CCCCCCC(C=C1)=CC=C1C2(C3=CC(C4=C(O5)C=C(C6=C(OCCCCCCCC)C=C(/C=C7C(C(C=C(F)C(F)=C8)=C8C\7=C(C#N)\C#N)=O)S6)S4)=C(C5(C9=CC=C(CCCCCC)C=C9)C%10=CC=C(CCCCCC)C=C%10)C=C3C%11=C(O2)C=C(C%12=C(OCCCCCCCC)C=C(/C=C%13C(C(C=C(F)C(F)=C%14)=C%14C\%13=C(C#N)/C#N)=O)S%12)S%11)C%15=CC=C(CCCCCC)C=C%15,1840.42,PTB7-Th,5.39,3.12,2.27,O=C(OCC(CC)CCCC)C1=C(F)C2=C(C)SC(C3=CC4=C(C(C5=CC=C(CC(CC)CCCC)S5)=C(C=C(C)S6)C6=C4C7=CC=C(CC(CC)CCCC)S7)S3)=C2S1,124,72.9,1.700960219,1,1.5,CB,CN,NA,85,,,
811,371,2019,9.73,9.37,20.71,0.637,0.74,CO5DFIC-ST,5.55,3.92,1.63,CCCCCCC(C=C1)=CC=C1C2(C3=CC(C4=C(O5)C=C(C6=C(SCCCCCCCC)C=C(/C=C7C(C(C=C(F)C(F)=C8)=C8C\7=C(C#N)\C#N)=O)S6)S4)=C(C5(C9=CC=C(CCCCCC)C=C9)C%10=CC=C(CCCCCC)C=C%10)C=C3C%11=C(O2)C=C(C%12=C(SCCCCCCCC)C=C(/C=C%13C(C(C=C(F)C(F)=C%14)=C%14C\%13=C(C#N)/C#N)=O)S%12)S%11)C%15=CC=C(CCCCCC)C=C%15,1872.54,PTB7-Th,5.39,3.12,2.27,O=C(OCC(CC)CCCC)C1=C(F)C2=C(C)SC(C3=CC4=C(C(C5=CC=C(CC(CC)CCCC)S5)=C(C=C(C)S6)C6=C4C7=CC=C(CC(CC)CCCC)S7)S3)=C2S1,124,72.9,1.700960219,1,2.5,CB,NA,NA,102,,,
812,372,2019,9.61,9.4,18.12,0.711,0.746,BDTThlT-4F,5.57,3.92,1.65,CCCCCCC(C=C1)=CC=C1C2(C3=CC=C(CCCCCC)C=C3)C4=C(SC(C4=C5C6=CC=C(CC(CC)CCCC)S6)=C(C7=CC=C(CC(CCCC)CC)S7)C8=C5SC9=C8C(C%10=C9SC(/C=C%11/C(C(C=C%12F)=C(C%11=O)C=C%12F)=C(C#N)/C#N)=C%10)(C%13=CC=C(CCCCCC)C=C%13)C%14=CC=C(CCCCCC)C=C%14)C%15=C2C=C(/C=C%16C(C(C=C(F)C(F)=C%17)=C%17C\%16=C(C#N)/C#N)=O)S%15,1888.59,PTB7-Th,5.23,3.52,1.71,O=C(OCC(CC)CCCC)C1=C(F)C2=C(C)SC(C3=CC4=C(C(C5=CC=C(CC(CC)CCCC)S5)=C(C=C(C)S6)C6=C4C7=CC=C(CC(CC)CCCC)S7)S3)=C2S1,124,72.9,1.700960219,1,1.5,CB,DIO,100,100,,,
813,372,2019,10.85,10.69,23.54,0.634,0.727,IEICO-4F,5.45,4.07,1.38,CCCCCCC(C=C1)=CC=C1C(C2=C3SC(C4=C(OCC(CC)CCCC)C=C(/C=C5C(C(C=C(F)C(F)=C6)=C6C\5=C(C#N)\C#N)=O)S4)=C2)(C7=CC=C(CCCCCC)C=C7)C8=C3C=C(C(C9=C%10SC(C(S%11)=C(C=C%11/C=C%12/C(C(C=C%13F)=C(C%12=O)C=C%13F)=C(C#N)/C#N)OCC(CCCC)CC)=C9)(C%14=CC=C(CCCCCC)C=C%14)C%15=CC=C(CCCCCC)C=C%15)C%10=C8,1808.42,PTB7-Th,5.23,3.52,1.71,O=C(OCC(CC)CCCC)C1=C(F)C2=C(C)SC(C3=CC4=C(C(C5=CC=C(CC(CC)CCCC)S5)=C(C=C(C)S6)C6=C4C7=CC=C(CC(CC)CCCC)S7)S3)=C2S1,124,72.9,1.700960219,1,1.5,CB,DIO,100,100,,,
814,373,2019,11.83,11.83,17.29,0.7319,0.93,IT-M,5.58,3.98,1.6,CCCCCCC(C=C1)=CC=C1C2(C3=CC=C(CCCCCC)C=C3)C4=CC5=C(C(C6=C5SC7=C6SC(/C=C8C(C(C=CC(C)=C9)=C9C\8=C(C#N)\C#N)=O)=C7)(C%10=CC=C(CCCCCC)C=C%10)C%11=CC=C(CCCCCC)C=C%11)C=C4C%12=C2C(SC(/C=C%13C(C(C=CC(C)=C%14)=C%14C\%13=C(C#N)/C#N)=O)=C%15)=C%15S%12,1456.01,PBDB-T,5.33,3.53,1.8,CC(SC1=C2C3=CC=C(CC(CC)CCCC)S3)=CC1=C(C4=CC=C(CC(CC)CCCC)S4)C5=C2C=C(S5)C6=CC=C(C7=C8C(C(C9=C(CC(CC)CCCC)SC(CC(CC)CCCC)=C9C8=O)=O)=C(C%10=CC=C(C)S%10)S7)S6,117,58.5,2,1,1,CB,DIO,NA,100,,,
815,374,2019,8.98,8.98,15.15,0.656,0.9,ITIC,5.54,3.84,1.7,CCCCCCC(C=C1)=CC=C1C2(C3=CC=C(CCCCCC)C=C3)C4=CC5=C(C(C6=C5SC7=C6SC(/C=C8C(C(C=CC=C9)=C9C\8=C(C#N)\C#N)=O)=C7)(C%10=CC=C(CCCCCC)C=C%10)C%11=CC=C(CCCCCC)C=C%11)C=C4C%12=C2C(SC(/C=C%13C(C(C=CC=C%14)=C%14C\%13=C(C#N)/C#N)=O)=C%15)=C%15S%12,1427.96,PBDB-T,5.33,2.92,2.41,CC(SC1=C2C3=CC=C(CC(CC)CCCC)S3)=CC1=C(C4=CC=C(CC(CC)CCCC)S4)C5=C2C=C(S5)C6=CC=C(C7=C8C(C(C9=C(CC(CC)CCCC)SC(CC(CC)CCCC)=C9C8=O)=O)=C(C%10=CC=C(C)S%10)S7)S6,117,58.5,2,1,1,CB,DIO,100,100,,,
816,375,2018,5.29,5.29,11.69,0.44,1.03,di-PNR,5.97,3.75,2.22,O=C(N(C(CCCCC)CCCCC)C1=O)C2=CC(N3CCCCCCCC)=C4C5=C(C6=C(C7=C(C8=C9C(N%10CCCCCCCC)=CC%11=C8C(C(N(C(CCCCC)CCCCC)C%11=O)=O)=C7)C%12=C(C9=C%10C=C%13C(N(C(CCCCC)CCCCC)C%14=O)=O)C%13=C%14C=C%12)C=C(C(N(C(CCCCC)CCCCC)C%15=O)=O)C%16=C%15C=C3C4=C6%16)C=CC1=C52,1646.31,PTB7-Th,5.12,3.6,1.52,O=C(OCC(CC)CCCC)C1=C(F)C2=C(C)SC(C3=CC4=C(C(C5=CC=C(CC(CC)CCCC)S5)=C(C=C(C)S6)C6=C4C7=CC=C(CC(CC)CCCC)S7)S3)=C2S1,124,72.9,1.700960219,1,1,CB,DIO,NA,100,,,