ID,Ref,year,PCE_max(%),PCE_ave(%),Jsc(mA/cm2),FF,Voc(V),Nickname(n),-HOMO_n(eV),-LUMO_n(eV),Eg_n(eV),n(SMILES),M (g/mol),Nickname(p),-HOMO_p(eV),-LUMO_p(eV),Eg_p(eV),p(SMILES),Mw (kg/mol),Mn(kg/mol),PDI,p/n ratio (p),p/n ratio (n),Solvent,Additive,TA (oC),thick (nm),,Journal,DOI
1110,492,2019,10.8,10.5,16.1,0.63,1.04,C8-ITCC,5.45,3.85,1.6,CCCCCCCCC1(CCCCCCCC)C2=CC3=C(C(C4=C3SC5=C4SC(/C=C6C(C(SC=C7)=C7C\6=C(C#N)\C#N)=O)=C5)(CCCCCCCC)CCCCCCCC)C=C2C8=C1C(SC(/C=C9C(C%10=C(SC=C%10)C\9=C(C#N)/C#N)=O)=C%11)=C%11S8,1247.82,PBDB-TF,5.4,3.64,1.76,CC(SC1=C2C3=CC(F)=C(CC(CC)CCCC)S3)=CC1=C(C4=CC(F)=C(CC(CC)CCCC)S4)C5=C2C=C(C6=CC=C(C7=C8C(C(C9=C(CC(CC)CCCC)SC(CC(CC)CCCC)=C9C8=O)=O)=C(C%10=CC=C(C)S%10)S7)S6)S5,87.845,30.282,2.900898223,1,1,CF,DIO,100,,,,
1111,492,2019,12.7,12.4,17.9,0.73,0.95,C8-ITCC-Cl,5.5,3.93,1.57,CCCCCCCCC1(CCCCCCCC)C2=CC3=C(C(C4=C3SC5=C4SC(/C=C6C(C(SC(Cl)=C7)=C7C\6=C(C#N)\C#N)=O)=C5)(CCCCCCCC)CCCCCCCC)C=C2C8=C1C(SC(/C=C9C(C%10=C(SC(Cl)=C%10)C\9=C(C#N)/C#N)=O)=C%11)=C%11S8,1316.71,PBDB-TF,5.4,3.64,1.76,CC(SC1=C2C3=CC(F)=C(CC(CC)CCCC)S3)=CC1=C(C4=CC(F)=C(CC(CC)CCCC)S4)C5=C2C=C(C6=CC=C(C7=C8C(C(C9=C(CC(CC)CCCC)SC(CC(CC)CCCC)=C9C8=O)=O)=C(C%10=CC=C(C)S%10)S7)S6)S5,87.845,30.282,2.900898223,1,1,CF,DIO,100,,,,
1112,493,2019,13.05,12.78,20.29,0.747,0.843,SRID-4F,5.52,3.9,1.62,CCCCCCC(C=C1)=CC=C1C2(C3=CC=C(CCCCCC)C=C3)C4=CC5=C(C(C6=C5SC7=C6[Se]C(/C=C8C(C(C=C(F)C(F)=C9)=C9C\8=C(C#N)\C#N)=O)=C7)(C%10=CC=C(CCCCCC)C=C%10)C%11=CC=C(CCCCCC)C=C%11)C=C4C%12=C2C([Se]C(/C=C%13C(C(C=C(F)C(F)=C%14)=C%14C\%13=C(C#N)/C#N)=O)=C%15)=C%15S%12,1593.74,PBDB-T-2F,5.45,3.65,1.8,CC(SC1=C2C3=CC(F)=C(CC(CC)CCCC)S3)=CC1=C(C4=CC(F)=C(CC(CC)CCCC)S4)C5=C2C=C(C6=CC=C(C7=C8C(C(C9=C(CC(CC)CCCC)SC(CC(CC)CCCC)=C9C8=O)=O)=C(C%10=CC=C(C)S%10)S7)S6)S5,87.845,30.282,2.900898223,1,1,CB,DIO,100,,,,
1113,493,2019,12.33,11.95,18.37,0.739,0.873,TRID-4F,5.52,3.9,1.62,CCCCCCC(C=C1)=CC=C1C2(C3=CC=C(CCCCCC)C=C3)C4=CC5=C(C(C6=C5[Se]C7=C6SC(/C=C8C(C(C=C(F)C(F)=C9)=C9C\8=C(C#N)\C#N)=O)=C7)(C%10=CC=C(CCCCCC)C=C%10)C%11=CC=C(CCCCCC)C=C%11)C=C4C%12=C2C(SC(/C=C%13C(C(C=C(F)C(F)=C%14)=C%14C\%13=C(C#N)/C#N)=O)=C%15)=C%15[Se]%12,1593.74,PBDB-T-2F,5.45,3.65,1.8,CC(SC1=C2C3=CC(F)=C(CC(CC)CCCC)S3)=CC1=C(C4=CC(F)=C(CC(CC)CCCC)S4)C5=C2C=C(C6=CC=C(C7=C8C(C(C9=C(CC(CC)CCCC)SC(CC(CC)CCCC)=C9C8=O)=O)=C(C%10=CC=C(C)S%10)S7)S6)S5,87.845,30.282,2.900898223,1,1.5,CB,DIO,100,,,,
1114,493,2019,12.63,12.45,19.19,0.752,0.862,IT-4F,5.57,3.89,1.68,CCCCCCC(C=C1)=CC=C1C2(C3=CC=C(CCCCCC)C=C3)C4=CC5=C(C(C6=C5SC7=C6SC(/C=C8C(C(C=C(F)C(F)=C9)=C9C\8=C(C#N)\C#N)=O)=C7)(C%10=CC=C(CCCCCC)C=C%10)C%11=CC=C(CCCCCC)C=C%11)C=C4C%12=C2C(SC(/C=C%13C(C(C=C(F)C(F)=C%14)=C%14C\%13=C(C#N)/C#N)=O)=C%15)=C%15S%12,1499.92,PBDB-T-2F,5.45,3.65,1.8,CC(SC1=C2C3=CC(F)=C(CC(CC)CCCC)S3)=CC1=C(C4=CC(F)=C(CC(CC)CCCC)S4)C5=C2C=C(C6=CC=C(C7=C8C(C(C9=C(CC(CC)CCCC)SC(CC(CC)CCCC)=C9C8=O)=O)=C(C%10=CC=C(C)S%10)S7)S6)S5,87.845,30.282,2.900898223,1,1,CB,DIO,100,,,,
1115,494,2019,13,12.7,21.3,0.687,0.87,IN-4F,5.56,3.99,1.57,CCCCCCC(C=C1)=CC=C1C2(C3=CC=C(CCCCCC)C=C3)C4=C(C5=CC=C([Si](CCC)(CCC)CCC)S5)C6=C(C(C7=C6SC8=C7SC9=C8SC(/C=C%10C(C(C=C(F)C(F)=C%11)=C%11C\%10=C(C#N)\C#N)=O)=C9)(C%12=CC=C(CCCCCC)C=C%12)C%13=CC=C(CCCCCC)C=C%13)C(C%14=CC=C([Si](CCC)(CCC)CCC)S%14)=C4C%15=C2C(SC%16=C%17SC(/C=C%18C(C(C=C(F)C(F)=C%19)=C%19C\%18=C(C#N)/C#N)=O)=C%16)=C%17S%15,2089.01,PM6,5.54,3.65,1.89,CC(SC1=C2C3=CC(F)=C(CC(CC)CCCC)S3)=CC1=C(C4=CC(F)=C(CC(CC)CCCC)S4)C5=C2C=C(S5)C6=CC=C(C7=C8C(C(C9=C(CC(CC)CCCC)SC(CC(CC)CCCC)=C9C8=O)=O)=C(C%10=CC=C(C)S%10)S7)S6,38.6,19.3,2,1,1,CB,DIO,90,100,,,
1116,494,2019,13.1,12.8,20.6,0.749,0.835,IT-4F,5.71,4.15,1.56,CCCCCCC(C=C1)=CC=C1C2(C3=CC=C(CCCCCC)C=C3)C4=CC5=C(C(C6=C5SC7=C6SC(/C=C8C(C(C=C(F)C(F)=C9)=C9C\8=C(C#N)\C#N)=O)=C7)(C%10=CC=C(CCCCCC)C=C%10)C%11=CC=C(CCCCCC)C=C%11)C=C4C%12=C2C(SC(/C=C%13C(C(C=C(F)C(F)=C%14)=C%14C\%13=C(C#N)/C#N)=O)=C%15)=C%15S%12,1499.92,PM6,5.54,3.65,1.89,CC(SC1=C2C3=CC(F)=C(CC(CC)CCCC)S3)=CC1=C(C4=CC(F)=C(CC(CC)CCCC)S4)C5=C2C=C(S5)C6=CC=C(C7=C8C(C(C9=C(CC(CC)CCCC)SC(CC(CC)CCCC)=C9C8=O)=O)=C(C%10=CC=C(C)S%10)S7)S6,38.6,19.3,2,1,1,CB,DIO,90,100,,,
1117,494,2019,15.5,15.2,24.7,0.736,0.837,Y6,5.62,4.11,1.51,O=C(C(C=C(F)C(F)=C1)=C1C/2=C(C#N)/C#N)C2=C/C3=C(CCCCCCCCCCC)C(SC4=C5N(CC(CC)CCCC)C6=C4C7=NSN=C7C8=C6N(CC(CC)CCCC)C9=C8SC%10=C9SC(/C=C%11/C(C%12=C(C%11=O)C=C(F)C(F)=C%12)=C(C#N)\C#N)=C%10CCCCCCCCCCC)=C5S3,1451.94,PM6,5.54,3.65,1.89,CC(SC1=C2C3=CC(F)=C(CC(CC)CCCC)S3)=CC1=C(C4=CC(F)=C(CC(CC)CCCC)S4)C5=C2C=C(S5)C6=CC=C(C7=C8C(C(C9=C(CC(CC)CCCC)SC(CC(CC)CCCC)=C9C8=O)=O)=C(C%10=CC=C(C)S%10)S7)S6,38.6,19.3,2,1,1.2,CB,DIO,90,100,,,
1118,495,2019,1.38,1.38,2.7,0.5,1.01,IDTBR,5.73,3.92,1.81,O=C(/C(S1)=C/C(C2=NSN=C32)=CC=C3C(S4)=CC5=C4C6=CC(C(CCCCCCCC)(CCCCCCCC)C7=C8SC(C9=CC=C(/C=C%10SC(N(CC)C\%10=O)=S)C%11=NSN=C9%11)=C7)=C8C=C6C5(CCCCCCCC)CCCCCCCC)N(CC)C1=S,1326.02,T2-BTDF-(TE2),5.66,3.6,2.06,CC(C1=NSN=C12)=C(F)C(F)=C2C3=CC=C(C4=C(C(OCC(CCCCCCCCCC)CCCCCCCCCCCC)=O)C=C(C5=CC(C(OCC(CCCCCCCCCC)CCCCCCCCCCCC)=O)=C(C6=CC=C(C)S6)S5)S4)S3,86.9,42.8,2.030373832,1,1,CF,NA,NA,75,,,
1119,495,2019,0.31,0.31,0.6,0.51,1.04,IDTBR,5.73,3.92,1.81,O=C(/C(S1)=C/C(C2=NSN=C32)=CC=C3C(S4)=CC5=C4C6=CC(C(CCCCCCCC)(CCCCCCCC)C7=C8SC(C9=CC=C(/C=C%10SC(N(CC)C\%10=O)=S)C%11=NSN=C9%11)=C7)=C8C=C6C5(CCCCCCCC)CCCCCCCC)N(CC)C1=S,1326.02,TE2-BTDF-(T2),5.76,3.59,2.17,FC1=C(C(S2)=CC(C(OCC(CCCCCCCCCC)CCCCCCCCCCCC)=O)=C2C3=CC=C(C4=CC=C(C)S4)S3)C5=NSN=C5C(C6=CC(C(OCC(CCCCCCCCCC)CCCCCCCCCCCC)=O)=C(C)S6)=C1F,66.6,33.7,1.976261128,1,1,CF,NA,NA,75,,,
1120,495,2019,2.93,2.93,5.8,0.52,0.98,ITIC,5.89,4.29,1.6,CCCCCCC(C=C1)=CC=C1C2(C3=CC=C(CCCCCC)C=C3)C4=CC5=C(C(C6=C5SC7=C6SC(/C=C8C(C(C=CC=C9)=C9C\8=C(C#N)\C#N)=O)=C7)(C%10=CC=C(CCCCCC)C=C%10)C%11=CC=C(CCCCCC)C=C%11)C=C4C%12=C2C(SC(/C=C%13C(C(C=CC=C%14)=C%14C\%13=C(C#N)/C#N)=O)=C%15)=C%15S%12,1427.96,T2-BTDF-(TE2),5.66,3.6,2.06,CC(C1=NSN=C12)=C(F)C(F)=C2C3=CC=C(C4=C(C(OCC(CCCCCCCCCC)CCCCCCCCCCCC)=O)C=C(C5=CC(C(OCC(CCCCCCCCCC)CCCCCCCCCCCC)=O)=C(C6=CC=C(C)S6)S5)S4)S3,86.9,42.8,2.030373832,1,1,CF,NA,NA,75,,,
1121,495,2019,2.3,2.3,4.4,0.55,1,ITIC,5.89,4.29,1.6,CCCCCCC(C=C1)=CC=C1C2(C3=CC=C(CCCCCC)C=C3)C4=CC5=C(C(C6=C5SC7=C6SC(/C=C8C(C(C=CC=C9)=C9C\8=C(C#N)\C#N)=O)=C7)(C%10=CC=C(CCCCCC)C=C%10)C%11=CC=C(CCCCCC)C=C%11)C=C4C%12=C2C(SC(/C=C%13C(C(C=CC=C%14)=C%14C\%13=C(C#N)/C#N)=O)=C%15)=C%15S%12,1427.96,TE2-BTDF-(T2),5.76,3.59,2.17,FC1=C(C(S2)=CC(C(OCC(CCCCCCCCCC)CCCCCCCCCCCC)=O)=C2C3=CC=C(C4=CC=C(C)S4)S3)C5=NSN=C5C(C6=CC(C(OCC(CCCCCCCCCC)CCCCCCCCCCCC)=O)=C(C)S6)=C1F,66.6,33.7,1.976261128,1,1,CF,NA,NA,75,,,
1122,495,2019,3.61,3.61,6.7,0.68,0.8,IT-4F,5.96,4.42,1.54,CCCCCCC(C=C1)=CC=C1C2(C3=CC=C(CCCCCC)C=C3)C4=CC5=C(C(C6=C5SC7=C6SC(/C=C8C(C(C=C(F)C(F)=C9)=C9C\8=C(C#N)\C#N)=O)=C7)(C%10=CC=C(CCCCCC)C=C%10)C%11=CC=C(CCCCCC)C=C%11)C=C4C%12=C2C(SC(/C=C%13C(C(C=C(F)C(F)=C%14)=C%14C\%13=C(C#N)/C#N)=O)=C%15)=C%15S%12,1499.92,T2-BTDF-(TE2),5.66,3.6,2.06,CC(C1=NSN=C12)=C(F)C(F)=C2C3=CC=C(C4=C(C(OCC(CCCCCCCCCC)CCCCCCCCCCCC)=O)C=C(C5=CC(C(OCC(CCCCCCCCCC)CCCCCCCCCCCC)=O)=C(C6=CC=C(C)S6)S5)S4)S3,86.9,42.8,2.030373832,1,1,CB,DIO,NA,75,,,
1123,495,2019,6.69,6.69,11.1,0.7,0.86,IT-4F,5.96,4.42,1.54,CCCCCCC(C=C1)=CC=C1C2(C3=CC=C(CCCCCC)C=C3)C4=CC5=C(C(C6=C5SC7=C6SC(/C=C8C(C(C=C(F)C(F)=C9)=C9C\8=C(C#N)\C#N)=O)=C7)(C%10=CC=C(CCCCCC)C=C%10)C%11=CC=C(CCCCCC)C=C%11)C=C4C%12=C2C(SC(/C=C%13C(C(C=C(F)C(F)=C%14)=C%14C\%13=C(C#N)/C#N)=O)=C%15)=C%15S%12,1499.92,TE2-BTDF-(T2),5.76,3.59,2.17,FC1=C(C(S2)=CC(C(OCC(CCCCCCCCCC)CCCCCCCCCCCC)=O)=C2C3=CC=C(C4=CC=C(C)S4)S3)C5=NSN=C5C(C6=CC(C(OCC(CCCCCCCCCC)CCCCCCCCCCCC)=O)=C(C)S6)=C1F,66.6,33.7,1.976261128,1,1,CB,DIO,NA,75,,,
1124,496,2019,9.4,9.4,16.87,0.6278,0.887,ITIC,5.51,3.78,1.73,CCCCCCC(C=C1)=CC=C1C2(C3=CC=C(CCCCCC)C=C3)C4=CC5=C(C(C6=C5SC7=C6SC(/C=C8C(C(C=CC=C9)=C9C\8=C(C#N)\C#N)=O)=C7)(C%10=CC=C(CCCCCC)C=C%10)C%11=CC=C(CCCCCC)C=C%11)C=C4C%12=C2C(SC(/C=C%13C(C(C=CC=C%14)=C%14C\%13=C(C#N)/C#N)=O)=C%15)=C%15S%12,1427.96,PBDB-T,5.33,2.92,2.41,CC(SC1=C2C3=CC=C(CC(CC)CCCC)S3)=CC1=C(C4=CC=C(CC(CC)CCCC)S4)C5=C2C=C(S5)C6=CC=C(C7=C8C(C(C9=C(CC(CC)CCCC)SC(CC(CC)CCCC)=C9C8=O)=O)=C(C%10=CC=C(C)S%10)S7)S6,117,58.5,2,1,1,CB,DIO,NA,100,,,
1125,496,2019,8.82,8.82,16.44,0.5782,0.928,ITIC,5.51,3.78,1.73,CCCCCCC(C=C1)=CC=C1C2(C3=CC=C(CCCCCC)C=C3)C4=CC5=C(C(C6=C5SC7=C6SC(/C=C8C(C(C=CC=C9)=C9C\8=C(C#N)\C#N)=O)=C7)(C%10=CC=C(CCCCCC)C=C%10)C%11=CC=C(CCCCCC)C=C%11)C=C4C%12=C2C(SC(/C=C%13C(C(C=CC=C%14)=C%14C\%13=C(C#N)/C#N)=O)=C%15)=C%15S%12,1427.96,PDCBT,5.31,3,2.31,O=C(OCC(CCCC)CCCCCC)C(C=C(C1=CC(C(OCC(CCCC)CCCCCC)=O)=C(C2=CC=C(C)S2)S1)S3)=C3C4=CC=C(C)S4,50,25,2,1,1,CB,DIO,NA,100,,,
1126,496,2019,1.13,1.13,4.53,0.3709,0.674,ITIC,5.51,3.78,1.73,CCCCCCC(C=C1)=CC=C1C2(C3=CC=C(CCCCCC)C=C3)C4=CC5=C(C(C6=C5SC7=C6SC(/C=C8C(C(C=CC=C9)=C9C\8=C(C#N)\C#N)=O)=C7)(C%10=CC=C(CCCCCC)C=C%10)C%11=CC=C(CCCCCC)C=C%11)C=C4C%12=C2C(SC(/C=C%13C(C(C=CC=C%14)=C%14C\%13=C(C#N)/C#N)=O)=C%15)=C%15S%12,1427.96,P3HT,5.1,2.76,2.34,CC1=CC(CCCCCC)=C(C)S1,48.3,24.15,2,1,1,CB,DIO,NA,100,,,
1127,497,2019,13.72,13.36,19.64,0.739,0.915,ITC-2Cl,5.58,4.01,1.57,CCCCCCC(C=C1)=CC=C1C2(C3=CC=C(CCCCCC)C=C3)C4=CC5=C(C(C6=C5SC7=C6SC(/C=C8C(C9=C(Cl)SC=C9C\8=C(C#N)\C#N)=O)=C7)(C%10=CC=C(CCCCCC)C=C%10)C%11=CC=C(CCCCCC)C=C%11)C=C4C%12=C2C(SC(/C=C%13C(C%14=C(Cl)SC=C%14C\%13=C(C#N)/C#N)=O)=C%15)=C%15S%12,1508.88,PM7,5.51,3.57,1.94,CC(SC1=C2C3=CC(Cl)=C(CC(CC)CCCC)S3)=CC1=C(C4=CC(Cl)=C(CC(CC)CCCC)S4)C5=C2C=C(S5)C6=CC=C(C7=C8C(C(C9=C(CC(CC)CCCC)SC(CC(CC)CCCC)=C9C8=O)=O)=C(C%10=CC=C(C)S%10)S7)S6,44.88,25.5,1.76,1,1,CF,DIO,90,105,,,
1128,497,2019,12.01,11.65,21.19,0.699,0.795,IXIC-4Cl,5.52,4.13,1.39,O=C(C(C=C(Cl)C(Cl)=C1)=C1C/2=C(C#N)/C#N)C2=C/C3=CC(SC4=C5C(C6=CC=C(CCCCCC)C=C6)(C7=CC=C(CCCCCC)C=C7)C8=C4SC9=C8SC%10=C9C(C%11=CC=C(CCCCCC)C=C%11)(C%12=CC=C(CCCCCC)C=C%12)C%13=C%10SC%14=C%13SC(/C=C%15C(C(C=C(Cl)C(Cl)=C%16)=C%16C\%15=C(C#N)\C#N)=O)=C%14)=C5S3,1627.83,PM7,5.51,3.57,1.94,CC(SC1=C2C3=CC(Cl)=C(CC(CC)CCCC)S3)=CC1=C(C4=CC(Cl)=C(CC(CC)CCCC)S4)C5=C2C=C(S5)C6=CC=C(C7=C8C(C(C9=C(CC(CC)CCCC)SC(CC(CC)CCCC)=C9C8=O)=O)=C(C%10=CC=C(C)S%10)S7)S6,44.88,25.5,1.76,1,1,CF,DIO,90,105,,,
1129,498,2019,5.61,5.31,13.43,0.621,0.641,F5IC,5.82,4.05,1.77,CCCCCCC(C=C1)=CC=C1C2(C3=CC=C(CCCCCC)C=C3)C4=CC5=C(C(C6=C5SC(/C=C7C(C(C=C(F)C(F)=C8)=C8C\7=C(C#N)\C#N)=O)=C6)(C9=CC=C(CCCCCC)C=C9)C%10=CC=C(CCCCCC)C=C%10)C=C4C%11=C2C=C(/C=C%12C(C(C=C(F)C(F)=C%13)=C%13C\%12=C(C#N)/C#N)=O)S%11,1387.75,PTB7-Th,5.2,3.59,1.61,O=C(OCC(CC)CCCC)C1=C(F)C2=C(C)SC(C3=CC4=C(C(C5=CC=C(CC(CC)CCCC)S5)=C(C=C(C)S6)C6=C4C7=CC=C(CC(CC)CCCC)S7)S3)=C2S1,124,72.9,1.700960219,1,1.5,CB,NA,80,,,,
1130,498,2019,13.7,13.3,24.32,0.743,0.742,AOIC,5.5,3.93,1.57,CCCCCCC(C=C1)=CC=C1C(C2=C3SC4=C2SC(/C=C5C(C(C=C(F)C(F)=C6)=C6C\5=C(C#N)/C#N)=O)=C4)(C7=C3SC8=C7C(C(C8=C9)=CC%10=C9C(C%11=C%10SC(/C=C%12C(C(C=C(F)C(F)=C%13)=C%13C\%12=C(C#N)\C#N)=O)=C%11)(C%14=CC=C(CCCCCC)C=C%14)C%15=CC=C(CCCCCC)C=C%15)(C%16=CC=C(CCCCCC)C=C%16)C%17=CC=C(CCCCCC)C=C%17)C%18=CC=C(CCCCCC)C=C%18,1858.49,PTB7-Th,5.2,3.59,1.61,O=C(OCC(CC)CCCC)C1=C(F)C2=C(C)SC(C3=CC4=C(C(C5=CC=C(CC(CC)CCCC)S5)=C(C=C(C)S6)C6=C4C7=CC=C(CC(CC)CCCC)S7)S3)=C2S1,124,72.9,1.700960219,1,1.25,CB,DIO,80,,,,
1131,498,2019,4.48,4.06,10.77,0.515,0.758,IUIC2,5.32,3.86,1.46,CCCCCCC(C=C1)=CC=C1C(C2=C3SC(/C=C4C(C(C=C(F)C(F)=C5)=C5C\4=C(C#N)/C#N)=O)=C2)(C6=C3SC7=C6C(C8=CC=C(CCCCCC)C=C8)(C9=CC=C(CCCCCC)C=C9)C(C7=C%10)=CC%11=C%10C(C%12=C%11SC%13=C%12C(C%14=C%13SC(/C=C%15C(C(C=C(F)C(F)=C%16)=C%16C\%15=C(C#N)\C#N)=O)=C%14)(C%17=CC=C(CCCCCC)C=C%17)C%18=CC=C(CCCCCC)C=C%18)(C%19=CC=C(CCCCCC)C=C%19)C%20=CC=C(CCCCCC)C=C%20)C%21=CC=C(CCCCCC)C=C%21,2217.06,PTB7-Th,5.2,3.59,1.61,O=C(OCC(CC)CCCC)C1=C(F)C2=C(C)SC(C3=CC4=C(C(C5=CC=C(CC(CC)CCCC)S5)=C(C=C(C)S6)C6=C4C7=CC=C(CC(CC)CCCC)S7)S3)=C2S1,124,72.9,1.700960219,1,1.5,CB,NA,80,,,,
1132,499,2019,10.35,10.15,17.6,0.6407,0.899,HBDT-4Cl,5.67,3.9,1.77,O=C1C2=C(C=C(Cl)C(Cl)=C2)C(/C1=C/C3=CC(C(C4=CC=C(CCCCCC)C=C4)(C5=C6SC7=C(C8=CC=C(CC(CCCC)CC)S8)C9=C(C(C%10=CC=C(CC(CC)CCCC)S%10)=C57)SC(C%11=C%12C=C(/C=C%13/C(C(C=C(Cl)C(Cl)=C%14)=C%14C%13=O)=C(C#N)\C#N)S%11)=C9C%12(C%15=CC=C(CCCCCC)C=C%15)C%16=CC=C(CCCCCC)C=C%16)C%17=CC=C(CCCCCC)C=C%17)=C6S3)=C(C#N)\C#N,1954.4,PBDB-T-2F,5.5,3.61,1.89,CC(SC1=C2C3=CC(F)=C(CC(CC)CCCC)S3)=CC1=C(C4=CC(F)=C(CC(CC)CCCC)S4)C5=C2C=C(C6=CC=C(C7=C8C(C(C9=C(CC(CC)CCCC)SC(CC(CC)CCCC)=C9C8=O)=O)=C(C%10=CC=C(C)S%10)S7)S6)S5,87.845,30.282,2.900898223,1,1,CB,NA,NA,,,,
1133,499,2019,12.36,12.07,19.51,0.7001,0.884,FBDT-4Cl,5.7,3.91,1.79,O=C1C2=C(C=C(Cl)C(Cl)=C2)C(/C1=C/C3=CC(C(C4=CC=C(CCCCCC)C=C4)(C5=C6SC7=C(C8=CC(F)=C(CC(CCCC)CC)S8)C9=C(C(C%10=CC(F)=C(CC(CC)CCCC)S%10)=C57)SC(C%11=C%12C=C(/C=C%13/C(C(C=C(Cl)C(Cl)=C%14)=C%14C%13=O)=C(C#N)\C#N)S%11)=C9C%12(C%15=CC=C(CCCCCC)C=C%15)C%16=CC=C(CCCCCC)C=C%16)C%17=CC=C(CCCCCC)C=C%17)=C6S3)=C(C#N)\C#N,1990.38,PBDB-T-2F,5.5,3.61,1.89,CC(SC1=C2C3=CC(F)=C(CC(CC)CCCC)S3)=CC1=C(C4=CC(F)=C(CC(CC)CCCC)S4)C5=C2C=C(C6=CC=C(C7=C8C(C(C9=C(CC(CC)CCCC)SC(CC(CC)CCCC)=C9C8=O)=O)=C(C%10=CC=C(C)S%10)S7)S6)S5,87.845,30.282,2.900898223,1,1,CB,NA,NA,,,,
1134,499,2019,11.65,11.27,18.98,0.6771,0.875,ClBDT-4Cl,5.72,3.92,1.8,O=C1C2=C(C=C(Cl)C(Cl)=C2)C(/C1=C/C3=CC(C(C4=CC=C(CCCCCC)C=C4)(C5=C6SC7=C(C8=CC(Cl)=C(CC(CCCC)CC)S8)C9=C(C(C%10=CC(Cl)=C(CC(CC)CCCC)S%10)=C57)SC(C%11=C%12C=C(/C=C%13/C(C(C=C(Cl)C(Cl)=C%14)=C%14C%13=O)=C(C#N)\C#N)S%11)=C9C%12(C%15=CC=C(CCCCCC)C=C%15)C%16=CC=C(CCCCCC)C=C%16)C%17=CC=C(CCCCCC)C=C%17)=C6S3)=C(C#N)\C#N,2023.28,PBDB-T-2F,5.5,3.61,1.89,CC(SC1=C2C3=CC(F)=C(CC(CC)CCCC)S3)=CC1=C(C4=CC(F)=C(CC(CC)CCCC)S4)C5=C2C=C(C6=CC=C(C7=C8C(C(C9=C(CC(CC)CCCC)SC(CC(CC)CCCC)=C9C8=O)=O)=C(C%10=CC=C(C)S%10)S7)S6)S5,87.845,30.282,2.900898223,1,1,CB,NA,NA,,,,
1135,500,2019,1.5,1.5,5.2,0.522,0.55,ITIC,5.43,3.81,1.62,CCCCCCC(C=C1)=CC=C1C2(C3=CC=C(CCCCCC)C=C3)C4=CC5=C(C(C6=C5SC7=C6SC(/C=C8C(C(C=CC=C9)=C9C\8=C(C#N)\C#N)=O)=C7)(C%10=CC=C(CCCCCC)C=C%10)C%11=CC=C(CCCCCC)C=C%11)C=C4C%12=C2C(SC(/C=C%13C(C(C=CC=C%14)=C%14C\%13=C(C#N)/C#N)=O)=C%15)=C%15S%12,1427.96,P3HT,5.1,3.2,1.9,CC1=CC(CCCCCC)=C(C)S1,21.1,11.6,1.818965517,1,1,CB/DCB,NA,120,,,,
1136,500,2019,2.3,2.3,9.8,0.525,0.45,ITIC-M,5.58,3.98,1.6,CCCCCCC(C=C1)=CC=C1C2(C3=CC=C(CCCCCC)C=C3)C4=CC5=C(C(C6=C5SC7=C6SC(/C=C8C(C(C=CC(C)=C9)=C9C\8=C(C#N)\C#N)=O)=C7)(C%10=CC=C(CCCCCC)C=C%10)C%11=CC=C(CCCCCC)C=C%11)C=C4C%12=C2C(SC(/C=C%13C(C(C=CC(C)=C%14)=C%14C\%13=C(C#N)/C#N)=O)=C%15)=C%15S%12,1456.01,P3HT,5.1,3.2,1.9,CC1=CC(CCCCCC)=C(C)S1,21.1,11.6,1.818965517,1,1,CB/DCB,NA,120,,,,
1137,500,2019,5.6,5.6,12.4,0.616,0.74,O-IDTBR,5.46,3.89,1.57,O=C(/C(S1)=C/C(C2=NSN=C32)=CC=C3C(C=C4)=CC5=C4C6=CC(C(CCCCCCCC)(CCCCCCCC)C7=C8C=CC(C9=CC=C(/C=C%10SC(N(CC)C\%10=O)=S)C%11=NSN=C9%11)=C7)=C8C=C6C5(CCCCCCCC)CCCCCCCC)N(CC)C1=S,1313.97,P3HT,5.1,3.2,1.9,CC1=CC(CCCCCC)=C(C)S1,21.1,11.6,1.818965517,1,1,CB/DCB,NA,120,,,,
1138,500,2019,3.3,3.3,7.7,0.577,0.74,EH-IDTBR,5.45,3.88,1.57,O=C(/C(S1)=C/C(C2=NSN=C32)=CC=C3C(C=C4)=CC5=C4C6=CC(C(CC(CC)CCCC)(CC(CC)CCCC)C7=C8C=CC(C9=CC=C(/C=C%10SC(N(CC)C\%10=O)=S)C%11=NSN=C9%11)=C7)=C8C=C6C5(CC(CC)CCCC)CC(CC)CCCC)N(CC)C1=S,1313.97,P3HT,5.1,3.2,1.9,CC1=CC(CCCCCC)=C(C)S1,21.1,11.6,1.818965517,1,1,CB/DCB,NA,120,,,,
1139,500,2019,4.2,4.2,6.9,0.675,0.9,O-IDFBR,5.75,3.7,2.05,O=C(/C(S1)=C/C(C2=NSN=C32)=CC=C3C(S4)=CC5=C4C6=CC(C(CCCCCCCC)(CCCCCCCC)C7=C8SC(C9=CC=C(/C=C%10SC(N(CC)C\%10=O)=S)C%11=NSN=C9%11)=C7)=C8C=C6C5(CCCCCCCC)CCCCCCCC)N(CC)C1=S,1326.02,P3HT,5.1,3.2,1.9,CC1=CC(CCCCCC)=C(C)S1,21.1,11.6,1.818965517,1,1,CB/DCB,NA,120,,,,
1140,501,2019,9.87,9.83,17.15,0.5829,0.97,CZTT-IC,5.54,3.97,1.57,O=C(C(C=CC=C1)=C1C/2=C(C#N)/C#N)C2=C/C3=CC4=C(S3)C(C(C(C=C5)=CC=C5CCCCCC)(C(C=C6)=CC=C6CCCCCC)C7=C8C=C(N9CC(CC)CCCC)C(C(C9=C%10)=CC%11=C%10C(SC%12=C%13SC(/C=C%14/C(C%15=C(C%14=O)C=CC=C%15)=C(C#N)\C#N)=C%12)=C%13C%11(C(C=C%16)=CC=C%16CCCCCC)C(C=C%17)=CC=C%17CCCCCC)=C7)=C8S4,1629.27,PBDB-T,5.28,3.48,1.8,CC(SC1=C2C3=CC=C(CC(CC)CCCC)S3)=CC1=C(C4=CC=C(CC(CC)CCCC)S4)C5=C2C=C(S5)C6=CC=C(C7=C8C(C(C9=C(CC(CC)CCCC)SC(CC(CC)CCCC)=C9C8=O)=O)=C(C%10=CC=C(C)S%10)S7)S6,117,58.5,2,1,1,CB,DIO,120,,,,
1141,501,2019,7.02,6.98,12.65,0.5052,1.07,CZTT-IC,5.54,3.97,1.57,O=C(C(C=CC=C1)=C1C/2=C(C#N)/C#N)C2=C/C3=CC4=C(S3)C(C(C(C=C5)=CC=C5CCCCCC)(C(C=C6)=CC=C6CCCCCC)C7=C8C=C(N9CC(CC)CCCC)C(C(C9=C%10)=CC%11=C%10C(SC%12=C%13SC(/C=C%14/C(C%15=C(C%14=O)C=CC=C%15)=C(C#N)\C#N)=C%12)=C%13C%11(C(C=C%16)=CC=C%16CCCCCC)C(C=C%17)=CC=C%17CCCCCC)=C7)=C8S4,1629.27,PM6,5.45,3.65,1.8,CC(SC1=C2C3=CC(F)=C(CC(CC)CCCC)S3)=CC1=C(C4=CC(F)=C(CC(CC)CCCC)S4)C5=C2C=C(S5)C6=CC=C(C7=C8C(C(C9=C(CC(CC)CCCC)SC(CC(CC)CCCC)=C9C8=O)=O)=C(C%10=CC=C(C)S%10)S7)S6,38.6,19.3,2,1,1,CB,DIO,100,,,,
1142,501,2019,9.81,9.77,18.78,0.5813,0.89,CZTT-4F,5.61,4.11,1.5,O=C(C(C=C(F)C(F)=C1)=C1C/2=C(C#N)/C#N)C2=C/C3=CC4=C(S3)C(C(C(C=C5)=CC=C5CCCCCC)(C(C=C6)=CC=C6CCCCCC)C7=C8C=C(N9CC(CC)CCCC)C(C(C9=C%10)=CC%11=C%10C(SC%12=C%13SC(/C=C%14/C(C%15=C(C%14=O)C=C(F)C(F)=C%15)=C(C#N)\C#N)=C%12)=C%13C%11(C(C=C%16)=CC=C%16CCCCCC)C(C=C%17)=CC=C%17CCCCCC)=C7)=C8S4,1701.23,PBDB-T,5.28,3.48,1.8,CC(SC1=C2C3=CC=C(CC(CC)CCCC)S3)=CC1=C(C4=CC=C(CC(CC)CCCC)S4)C5=C2C=C(S5)C6=CC=C(C7=C8C(C(C9=C(CC(CC)CCCC)SC(CC(CC)CCCC)=C9C8=O)=O)=C(C%10=CC=C(C)S%10)S7)S6,117,58.5,2,1,0.8,CB,DIO,NA,,,,
1143,501,2019,12.07,11.95,19.86,0.6498,0.95,CZTT-4F,5.61,4.11,1.5,O=C(C(C=C(F)C(F)=C1)=C1C/2=C(C#N)/C#N)C2=C/C3=CC4=C(S3)C(C(C(C=C5)=CC=C5CCCCCC)(C(C=C6)=CC=C6CCCCCC)C7=C8C=C(N9CC(CC)CCCC)C(C(C9=C%10)=CC%11=C%10C(SC%12=C%13SC(/C=C%14/C(C%15=C(C%14=O)C=C(F)C(F)=C%15)=C(C#N)\C#N)=C%12)=C%13C%11(C(C=C%16)=CC=C%16CCCCCC)C(C=C%17)=CC=C%17CCCCCC)=C7)=C8S4,1701.23,PM6,5.45,3.65,1.8,CC(SC1=C2C3=CC(F)=C(CC(CC)CCCC)S3)=CC1=C(C4=CC(F)=C(CC(CC)CCCC)S4)C5=C2C=C(S5)C6=CC=C(C7=C8C(C(C9=C(CC(CC)CCCC)SC(CC(CC)CCCC)=C9C8=O)=O)=C(C%10=CC=C(C)S%10)S7)S6,38.6,19.3,2,1,1.25,CB,DIO,135,,,,
1144,502,2019,10.07,9.72,15.25,0.62,1.02,EH-IDTBR,5.42,3.6,1.82,O=C(/C(S1)=C/C(C2=NSN=C32)=CC=C3C(S4)=CC5=C4C6=CC(C(CC(CC)CCCC)(CC(CC)CCCC)C7=C8SC(C9=CC=C(/C=C%10SC(N(CC)C\%10=O)=S)C%11=NSN=C9%11)=C7)=C8C=C6C5(CC(CC)CCCC)CC(CC)CCCC)N(CC)C1=S,1326.02,PTB7-Th,5.39,3.41,1.98,O=C(OCC(CC)CCCC)C1=C(F)C2=C(C)SC(C3=CC4=C(C(C5=CC=C(CC(CC)CCCC)S5)=C(C=C(C)S6)C6=C4C7=CC=C(CC(CC)CCCC)S7)S3)=C2S1,124,72.9,1.700960219,1,2,CF,NA,SVA-CF,100,,,
1145,502,2019,9.39,9.03,14.43,0.58,1.06,T2-ORH,5.67,3.57,2.1,O=C(N(CCCCCCCC)C(S/1)=S)C1=C\C2=CC=C(C3=CC=C(/C=C4C(N(CCCCCCCC)C(S/4)=S)=O)S3)S2,677.04,PTB7-Th,5.39,3.41,1.98,O=C(OCC(CC)CCCC)C1=C(F)C2=C(C)SC(C3=CC4=C(C(C5=CC=C(CC(CC)CCCC)S5)=C(C=C(C)S6)C6=C4C7=CC=C(CC(CC)CCCC)S7)S3)=C2S1,124,72.9,1.700960219,1,2,CF,NA,SVA-CF,100,,,
1146,503,2019,10.9,10.9,19.8,0.59,0.91,BP-4F,5.63,3.9,1.73,O=C1C2=C(C=C(F)C(F)=C2)C(/C1=C/C3=CC(C(C4=CC=C(CCCCCC)C=C4)(C5=C6SC7=C(C(C=C8)=CC=C8CC(CCCC)CC)C9=C(C(C%10=CC=C(C=C%10)CC(CC)CCCC)=C57)SC(C%11=C%12C=C(/C=C%13/C(C(C=C(F)C(F)=C%14)=C%14C%13=O)=C(C#N)/C#N)S%11)=C9C%12(C%15=CC=C(CCCCCC)C=C%15)C%16=CC=C(CCCCCC)C=C%16)C%17=CC=C(CCCCCC)C=C%17)=C6S3)=C(C#N)\C#N,1876.55,PM6,5.48,3.63,1.85,CC(SC1=C2C3=CC(F)=C(CC(CC)CCCC)S3)=CC1=C(C4=CC(F)=C(CC(CC)CCCC)S4)C5=C2C=C(S5)C6=CC=C(C7=C8C(C(C9=C(CC(CC)CCCC)SC(CC(CC)CCCC)=C9C8=O)=O)=C(C%10=CC=C(C)S%10)S7)S6,38.6,19.3,2,1,1,CB,NA,NA,,,,
1147,503,2019,13.9,13.9,21.6,0.72,0.89,BP-4F,5.63,3.9,1.73,O=C1C2=C(C=C(F)C(F)=C2)C(/C1=C/C3=CC(C(C4=CC=C(CCCCCC)C=C4)(C5=C6SC7=C(C(C=C8)=CC=C8CC(CCCC)CC)C9=C(C(C%10=CC=C(C=C%10)CC(CC)CCCC)=C57)SC(C%11=C%12C=C(/C=C%13/C(C(C=C(F)C(F)=C%14)=C%14C%13=O)=C(C#N)/C#N)S%11)=C9C%12(C%15=CC=C(CCCCCC)C=C%15)C%16=CC=C(CCCCCC)C=C%16)C%17=CC=C(CCCCCC)C=C%17)=C6S3)=C(C#N)\C#N,1876.55,PM6,5.48,3.63,1.85,CC(SC1=C2C3=CC(F)=C(CC(CC)CCCC)S3)=CC1=C(C4=CC(F)=C(CC(CC)CCCC)S4)C5=C2C=C(S5)C6=CC=C(C7=C8C(C(C9=C(CC(CC)CCCC)SC(CC(CC)CCCC)=C9C8=O)=O)=C(C%10=CC=C(C)S%10)S7)S6,38.6,19.3,2,1,1,CB,NA,160,,,,
1148,504,2019,10.51,10.21,17.32,0.627,0.94,TTTIC,5.69,3.9,1.79,CCCCCCC(C=C1)=CC=C1C2(C3=CC=C(CCCCCC)C=C3)C4=CC5=C(C(C6=C5SC7=C6SC(/C=C8C(C9=CSC=C9C\8=C(C#N)\C#N)=O)=C7)(C%10=CC=C(CCCCCC)C=C%10)C%11=CC=C(CCCCCC)C=C%11)C=C4C%12=C2C(SC(/C=C%13C(C%14=CSC=C%14C\%13=C(C#N)/C#N)=O)=C%15)=C%15S%12,1440,PM6,5.45,3.65,1.8,CC(SC1=C2C3=CC(F)=C(CC(CC)CCCC)S3)=CC1=C(C4=CC(F)=C(CC(CC)CCCC)S4)C5=C2C=C(S5)C6=CC=C(C7=C8C(C(C9=C(CC(CC)CCCC)SC(CC(CC)CCCC)=C9C8=O)=O)=C(C%10=CC=C(C)S%10)S7)S6,38.6,19.3,2,1,1,CB,DIO,NA,100,,,