ID,Ref,year,PCE_max(%),PCE_ave(%),Jsc(mA/cm2),FF,Voc(V),Nickname(n),-HOMO_n(eV),-LUMO_n(eV),Eg_n(eV),n(SMILES),M (g/mol),Nickname(p),-HOMO_p(eV),-LUMO_p(eV),Eg_p(eV),p(SMILES),Mw (kg/mol),Mn(kg/mol),PDI,p/n ratio (p),p/n ratio (n),Solvent,Additive,TA (oC),thick (nm),,Journal,DOI
1310,556,2018,12.7,12.29,17.44,0.7326,0.962,IDIC,5.74,3.9,1.84,O=C(C(C=CC=C1)=C1C/2=C(C#N)\C#N)C2=C/C(S3)=CC4=C3C5=C(C4(CCCCCC)CCCCCC)C=C6C(C(CCCCCC)(CCCCCC)C7=C6SC(/C=C8C(C(C=CC=C9)=C9C\8=C(C#N)/C#N)=O)=C7)=C5,1011.4,PTQ10,5.54,2.98,2.56,FC1=C(C2=CC=C(C)S2)C3=NC(OCC(CCCCCC)CCCCCCCC)=CN=C3C(C)=C1F,82.11,39.1,2.1,1,1,CF,NA,140,130,,,
1311,556,2018,12.13,12.01,19.69,0.6355,0.096,IDIC,5.74,3.9,1.84,O=C(C(C=CC=C1)=C1C/2=C(C#N)\C#N)C2=C/C(S3)=CC4=C3C5=C(C4(CCCCCC)CCCCCC)C=C6C(C(CCCCCC)(CCCCCC)C7=C6SC(/C=C8C(C(C=CC=C9)=C9C\8=C(C#N)/C#N)=O)=C7)=C5,1011.4,PTQ10,5.54,2.98,2.56,FC1=C(C2=CC=C(C)S2)C3=NC(OCC(CCCCCC)CCCCCCCC)=CN=C3C(C)=C1F,82.11,39.1,2.1,1,1.5,CF,NA,140,130,,,
1312,557,2020,15.47,15.53,25.4,0.699,0.866,Y6,5.65,4.1,1.55,O=C(C(C=C(F)C(F)=C1)=C1C/2=C(C#N)/C#N)C2=C/C3=C(CCCCCCCCCCC)C(SC4=C5N(CC(CC)CCCC)C6=C4C7=NSN=C7C8=C6N(CC(CC)CCCC)C9=C8SC%10=C9SC(/C=C%11/C(C%12=C(C%11=O)C=C(F)C(F)=C%12)=C(C#N)\C#N)=C%10CCCCCCCCCCC)=C5S3,1451.94,PTQ10,5.54,2.98,2.56,FC1=C(C2=CC=C(C)S2)C3=NC(OCC(CCCCCC)CCCCCCCC)=CN=C3C(C)=C1F,82.11,39.1,2.1,1,1.2,CF,NA,100,110,,,
1313,557,2020,16.53,16.45,26.64,0.746,0.828,Y6,5.65,4.1,1.55,O=C(C(C=C(F)C(F)=C1)=C1C/2=C(C#N)/C#N)C2=C/C3=C(CCCCCCCCCCC)C(SC4=C5N(CC(CC)CCCC)C6=C4C7=NSN=C7C8=C6N(CC(CC)CCCC)C9=C8SC%10=C9SC(/C=C%11/C(C%12=C(C%11=O)C=C(F)C(F)=C%12)=C(C#N)\C#N)=C%10CCCCCCCCCCC)=C5S3,1451.94,PTQ10,5.54,2.98,2.56,FC1=C(C2=CC=C(C)S2)C3=NC(OCC(CCCCCC)CCCCCCCC)=CN=C3C(C)=C1F,82.11,39.1,2.1,1,1.2,CF,DIO,100,110,,,
1314,557,2020,13.19,13.09,18.62,0.738,0.96,IDIC,5.74,3.9,1.84,O=C(C(C=CC=C1)=C1C/2=C(C#N)\C#N)C2=C/C(S3)=CC4=C3C5=C(C4(CCCCCC)CCCCCC)C=C6C(C(CCCCCC)(CCCCCC)C7=C6SC(/C=C8C(C(C=CC=C9)=C9C\8=C(C#N)/C#N)=O)=C7)=C5,1011.4,PTQ10,5.54,2.98,2.56,FC1=C(C2=CC=C(C)S2)C3=NC(OCC(CCCCCC)CCCCCCCC)=CN=C3C(C)=C1F,82.11,39.1,2.1,1,1,CF,NA,100,110,,,
1315,558,2021,2.15,2.08,6.59,0.41,0.77,IT-4F,5.66,4.14,1.52,CCCCCCC(C=C1)=CC=C1C2(C3=CC=C(CCCCCC)C=C3)C4=CC5=C(C(C6=C5SC7=C6SC(/C=C8C(C(C=C(F)C(F)=C9)=C9C\8=C(C#N)\C#N)=O)=C7)(C%10=CC=C(CCCCCC)C=C%10)C%11=CC=C(CCCCCC)C=C%11)C=C4C%12=C2C(SC(/C=C%13C(C(C=C(F)C(F)=C%14)=C%14C\%13=C(C#N)/C#N)=O)=C%15)=C%15S%12,1499.92,PBDTTzH,5.29,3.39,1.9,CC(SC1=C2C3=CC(Cl)=C(CC(CC)CCCC)S3)=CC1=C(C4=CC(Cl)=C(CC(CC)CCCC)S4)C5=C2C=C(C6=C(CCCCCC)C=C(C7=NC8=C(N=C(C9=CC(CCCCCC)=C(C)S9)S8)S7)S6)S5,5.25,3.5,1.5,1,1,CB,NA,NA,,,,
1316,558,2021,10.1,9.78,16.26,0.65,0.93,IT-4F,5.66,4.14,1.52,CCCCCCC(C=C1)=CC=C1C2(C3=CC=C(CCCCCC)C=C3)C4=CC5=C(C(C6=C5SC7=C6SC(/C=C8C(C(C=C(F)C(F)=C9)=C9C\8=C(C#N)\C#N)=O)=C7)(C%10=CC=C(CCCCCC)C=C%10)C%11=CC=C(CCCCCC)C=C%11)C=C4C%12=C2C(SC(/C=C%13C(C(C=C(F)C(F)=C%14)=C%14C\%13=C(C#N)/C#N)=O)=C%15)=C%15S%12,1499.92,PBDTTzEH,5.45,3.58,1.87,CC(SC1=C2C3=CC(Cl)=C(CC(CC)CCCC)S3)=CC1=C(C4=CC(Cl)=C(CC(CC)CCCC)S4)C5=C2C=C(C6=C(CC(CC)CCCC)C=C(C7=NC8=C(N=C(C9=CC(CC(CC)CCCC)=C(C)S9)S8)S7)S6)S5,38.94,11.8,3.3,1,1,CB,DPE,NA,,,,
1317,558,2021,3.97,3.67,7.81,0.51,0.95,IT-4F,5.66,4.14,1.52,CCCCCCC(C=C1)=CC=C1C2(C3=CC=C(CCCCCC)C=C3)C4=CC5=C(C(C6=C5SC7=C6SC(/C=C8C(C(C=C(F)C(F)=C9)=C9C\8=C(C#N)\C#N)=O)=C7)(C%10=CC=C(CCCCCC)C=C%10)C%11=CC=C(CCCCCC)C=C%11)C=C4C%12=C2C(SC(/C=C%13C(C(C=C(F)C(F)=C%14)=C%14C\%13=C(C#N)/C#N)=O)=C%15)=C%15S%12,1499.92,PBDTTzBO,5.47,3.55,1.92,CC(SC1=C2C3=CC(Cl)=C(CC(CC)CCCC)S3)=CC1=C(C4=CC(Cl)=C(CC(CC)CCCC)S4)C5=C2C=C(C6=C(CC(CCCC)CCCCCC)C=C(C7=NC8=C(N=C(C9=CC(CC(CCCC)CCCCCC)=C(C)S9)S8)S7)S6)S5,20.24,8.8,2.3,1,1,CB,NA,NA,,,,
1318,558,2021,2.34,2.24,5.8,0.38,0.97,IT-4F,5.66,4.14,1.52,CCCCCCC(C=C1)=CC=C1C2(C3=CC=C(CCCCCC)C=C3)C4=CC5=C(C(C6=C5SC7=C6SC(/C=C8C(C(C=C(F)C(F)=C9)=C9C\8=C(C#N)\C#N)=O)=C7)(C%10=CC=C(CCCCCC)C=C%10)C%11=CC=C(CCCCCC)C=C%11)C=C4C%12=C2C(SC(/C=C%13C(C(C=C(F)C(F)=C%14)=C%14C\%13=C(C#N)/C#N)=O)=C%15)=C%15S%12,1499.92,PBDTTzHD,5.49,3.54,1.95,CC(SC1=C2C3=CC(Cl)=C(CC(CC)CCCC)S3)=CC1=C(C4=CC(Cl)=C(CC(CC)CCCC)S4)C5=C2C=C(C6=C(CC(CCCCCC)CCCCCCCC)C=C(C7=NC8=C(N=C(C9=CC(CC(CCCCCC)CCCCCCCC)=C(C)S9)S8)S7)S6)S5,15.39,8.1,1.9,1,1,CB,NA,NA,,,,