ID,Ref,year,PCE_max(%),PCE_ave(%),Jsc(mA/cm2),FF,Voc(V),Nickname(n),-HOMO_n(eV),-LUMO_n(eV),Eg_n(eV),n(SMILES),M (g/mol),Nickname(p),-HOMO_p(eV),-LUMO_p(eV),Eg_p(eV),p(SMILES),Mw (kg/mol),Mn(kg/mol),PDI,p/n ratio (p),p/n ratio (n),Solvent,Additive,TA (oC),thick (nm),,Journal,DOI
637,283,2018,6.04,5.71,14.2,0.5748,0.74,ITIC,5.48,3.83,1.65,CCCCCCC(C=C1)=CC=C1C2(C3=CC=C(CCCCCC)C=C3)C4=CC5=C(C(C6=C5SC7=C6SC(/C=C8C(C(C=CC=C9)=C9C\8=C(C#N)\C#N)=O)=C7)(C%10=CC=C(CCCCCC)C=C%10)C%11=CC=C(CCCCCC)C=C%11)C=C4C%12=C2C(SC(/C=C%13C(C(C=CC=C%14)=C%14C\%13=C(C#N)/C#N)=O)=C%15)=C%15S%12,1427.96,PfBTAZT-BDT,5.27,3.45,1.82,CCCCC(CC)CC(S1)=CC=C1C2=C3C(C=C(C4=CC=C(C5=C6C=C(F)SC6=C(C7=CC=C(C)S7)C8=NN(CC(CCCCCCCC)CCCCCC)N=C58)S4)S3)=C(C9=CC=C(CC(CC)CCCC)S9)C%10=C2C=C(C)S%10,225.6,94,2.4,1,1,DCB,NA,NA,,,,
638,283,2018,6.59,6.05,13.94,0.6182,0.77,ITIC,5.48,3.83,1.65,CCCCCCC(C=C1)=CC=C1C2(C3=CC=C(CCCCCC)C=C3)C4=CC5=C(C(C6=C5SC7=C6SC(/C=C8C(C(C=CC=C9)=C9C\8=C(C#N)\C#N)=O)=C7)(C%10=CC=C(CCCCCC)C=C%10)C%11=CC=C(CCCCCC)C=C%11)C=C4C%12=C2C(SC(/C=C%13C(C(C=CC=C%14)=C%14C\%13=C(C#N)/C#N)=O)=C%15)=C%15S%12,1427.96,PfBTAZT-fBDT,5.37,3.58,1.79,CCCCC(CC)CC(S1)=C(F)C=C1C2=C3C(C=C(C4=CC=C(C5=C6C=C(F)SC6=C(C7=CC=C(C)S7)C8=NN(CC(CCCCCCCC)CCCCCC)N=C58)S4)S3)=C(C9=CC(F)=C(CC(CC)CCCC)S9)C%10=C2C=C(C)S%10,212.5,85,2.5,1,1,DCB,DPE,110,,,,
639,284,2019,8.61,8.44,23.41,0.553,0.66,Y6,5.65,4.1,1.55,O=C(C(C=C(F)C(F)=C1)=C1C/2=C(C#N)/C#N)C2=C/C3=C(CCCCCCCCCCC)C(SC4=C5N(CC(CC)CCCC)C6=C4C7=NSN=C7C8=C6N(CC(CC)CCCC)C9=C8SC%10=C9SC(/C=C%11/C(C%12=C(C%11=O)C=C(F)C(F)=C%12)=C(C#N)\C#N)=C%10CCCCCCCCCCC)=C5S3,1451.94,PE61,5.19,3.44,1.75,CC1=CC(C(S1)=C2C3=CC=C(CC(CC)CCCC)S3)=C(C4=C2C=C(C5=CC=C(C6=C(F)C(F)=C(C7=CC=C(C)S7)C8=C6N=C(C9=CC=CC(OCCCCCCCC)=C9)C(C%10=CC(OCCCCCCCC)=CC=C%10)=N8)S5)S4)C%11=CC=C(CC(CC)CCCC)S%11,55.4,18.3,3.027322404,1,1.2,CF,DPE,110,,,,
640,284,2019,12.02,11.84,24.64,0.6222,0.78,Y6,5.65,4.1,1.55,O=C(C(C=C(F)C(F)=C1)=C1C/2=C(C#N)/C#N)C2=C/C3=C(CCCCCCCCCCC)C(SC4=C5N(CC(CC)CCCC)C6=C4C7=NSN=C7C8=C6N(CC(CC)CCCC)C9=C8SC%10=C9SC(/C=C%11/C(C%12=C(C%11=O)C=C(F)C(F)=C%12)=C(C#N)\C#N)=C%10CCCCCCCCCCC)=C5S3,1451.94,PE62,5.37,3.48,1.89,CC1=CC(C(S1)=C2C3=CC(F)=C(CC(CC)CCCC)S3)=C(C4=C2C=C(C5=CC=C(C6=C(F)C(F)=C(C7=CC=C(C)S7)C8=C6N=C(C9=CC=CC(OCCCCCCCC)=C9)C(C%10=CC(OCCCCCCCC)=CC=C%10)=N8)S5)S4)C%11=CC(F)=C(CC(CC)CCCC)S%11,54.1,17.1,3.16374269,1,1.2,CF,DPE,110,,,,
641,284,2019,13.1,13.01,24.68,0.6374,0.83,Y6,5.65,4.1,1.55,O=C(C(C=C(F)C(F)=C1)=C1C/2=C(C#N)/C#N)C2=C/C3=C(CCCCCCCCCCC)C(SC4=C5N(CC(CC)CCCC)C6=C4C7=NSN=C7C8=C6N(CC(CC)CCCC)C9=C8SC%10=C9SC(/C=C%11/C(C%12=C(C%11=O)C=C(F)C(F)=C%12)=C(C#N)\C#N)=C%10CCCCCCCCCCC)=C5S3,1451.94,PE63,5.41,3.5,1.91,CC1=CC(C(S1)=C2C3=CC(F)=C(SCC(CC)CCCC)S3)=C(C4=C2C=C(C5=CC=C(C6=C(F)C(F)=C(C7=CC=C(C)S7)C8=C6N=C(C9=CC=CC(OCCCCCCCC)=C9)C(C%10=CC(OCCCCCCCC)=CC=C%10)=N8)S5)S4)C%11=CC(F)=C(SCC(CC)CCCC)S%11,66.2,22.9,2.890829694,1,1.2,CF,DPE,110,,,,
642,285,2018,10.56,10.22,17.4,0.65,0.904,ITCT-DM,5.48,3.9,1.58,O=C(C/1=C\C2=CC(S3)=C(S2)C4=C3C5=CC(C(C6=CC=C(CCCCCC)S6)(C7=CC=C(CCCCCC)S7)C8=C9SC%10=C8SC(/C=C%11/C(C%12=C(C)SC(C)=C%12C%11=O)=C(C#N)\C#N)=C%10)=C9C=C5C4(C%13=CC=C(CCCCCC)S%13)C%14=CC=C(CCCCCC)S%14)C%15=C(C)SC(C)=C%15C1=C(C#N)\C#N,1520.2,PBDB-T,5.33,3.53,1.8,CC(SC1=C2C3=CC=C(CC(CC)CCCC)S3)=CC1=C(C4=CC=C(CC(CC)CCCC)S4)C5=C2C=C(S5)C6=CC=C(C7=C8C(C(C9=C(CC(CC)CCCC)SC(CC(CC)CCCC)=C9C8=O)=O)=C(C%10=CC=C(C)S%10)S7)S6,117,58.5,2,1,1,CB,DIO,120,,,,
643,286,2018,7.5,7.2,16.97,0.58,0.72,IEICS-4F,5.43,4.08,1.35,CCCCCCC1=CC=C(C2(C3=C(SC(C4=C(SCC(CCCC)CC)C=C(/C=C5/C(C6=C(C5=O)C=C(F)C(F)=C6)=C(C#N)/C#N)S4)=C3)C7=C2C=C8C(SC(C9=C(SCC(CC)CCCC)C=C(/C=C%10/C(C%11=C(C%10=O)C=C(F)C(F)=C%11)=C(C#N)/C#N)S9)=C%12)=C%12C(C(C=C%13)=CC=C%13CCCCCC)(C8=C7)C(C=C%14)=CC=C%14CCCCCC)C(C=C%15)=CC=C%15CCCCCC)C=C1,1840.55,PTB7-Th,5.22,3.64,1.58,O=C(OCC(CC)CCCC)C1=C(F)C2=C(C)SC(C3=CC4=C(C(C5=CC=C(CC(CC)CCCC)S5)=C(C=C(C)S6)C6=C4C7=CC=C(CC(CC)CCCC)S7)S3)=C2S1,124,72.9,1.700960219,1,1.5,CB,CN,90,,,,
644,287,2018,11.47,11.28,23.45,0.689,0.71,COi8DFIC,5.46,3.9,1.56,CCCCCCC(C=C1)=CC=C1C2(C(C(SC(/C=C3/C(C(C=C4F)=C(C3=O)C=C4F)=C(C#N)\C#N)=C5)=C5S6)=C6C(S7)=C(O2)C8=C7C9=C(S8)C%10=C(C(C%11=CC=C(CCCCCC)C=C%11)(O9)C%12=CC=C(CCCCCC)C=C%12)C(SC(/C=C%13C(C(C=C(F)C(F)=C%14)=C%14C\%13=C(C#N)\C#N)=O)=C%15)=C%15S%10)C%16=CC=C(CCCCCC)C=C%16,1594.02,PTB7-Th,5.23,3.52,1.71,O=C(OCC(CC)CCCC)C1=C(F)C2=C(C)SC(C3=CC4=C(C(C5=CC=C(CC(CC)CCCC)S5)=C(C=C(C)S6)C6=C4C7=CC=C(CC(CC)CCCC)S7)S3)=C2S1,124,72.9,1.700960219,1,1.5,CB,DIO,,120,,,
645,287,2018,9.25,9.08,17.52,0.708,0.746,BDTThlT-4F,5.57,3.92,1.65,CCCCCCC(C=C1)=CC=C1C2(C3=CC=C(CCCCCC)C=C3)C4=C(SC(C4=C5C6=CC=C(CC(CC)CCCC)S6)=C(C7=CC=C(CC(CCCC)CC)S7)C8=C5SC9=C8C(C%10=C9SC(/C=C%11/C(C(C=C%12F)=C(C%11=O)C=C%12F)=C(C#N)/C#N)=C%10)(C%13=CC=C(CCCCCC)C=C%13)C%14=CC=C(CCCCCC)C=C%14)C%15=C2C=C(/C=C%16C(C(C=C(F)C(F)=C%17)=C%17C\%16=C(C#N)/C#N)=O)S%15,1888.59,PTB7-Th,5.23,3.52,1.71,O=C(OCC(CC)CCCC)C1=C(F)C2=C(C)SC(C3=CC4=C(C(C5=CC=C(CC(CC)CCCC)S5)=C(C=C(C)S6)C6=C4C7=CC=C(CC(CC)CCCC)S7)S3)=C2S1,124,72.9,1.700960219,1,1.5,CB,DIO,,120,,,
646,288,2018,10.3,10,15.6,0.66,1.01,ITIC,5.5,3.85,1.65,CCCCCCC(C=C1)=CC=C1C2(C3=CC=C(CCCCCC)C=C3)C4=CC5=C(C(C6=C5SC7=C6SC(/C=C8C(C(C=CC=C9)=C9C\8=C(C#N)\C#N)=O)=C7)(C%10=CC=C(CCCCCC)C=C%10)C%11=CC=C(CCCCCC)C=C%11)C=C4C%12=C2C(SC(/C=C%13C(C(C=CC=C%14)=C%14C\%13=C(C#N)/C#N)=O)=C%15)=C%15S%12,1427.96,PBDB-TF,5.48,3.65,1.83,CC(SC1=C2C3=CC(F)=C(CC(CC)CCCC)S3)=CC1=C(C4=CC(F)=C(CC(CC)CCCC)S4)C5=C2C=C(S5)C6=CC=C(C7=C8C(C(C9=C(CC(CC)CCCC)SC(CC(CC)CCCC)=C9C8=O)=O)=C(C%10=CC=C(C)S%10)S7)S6,38.6,19.3,2,1,1,CB,DIO,NA,,,,
647,288,2018,10.9,10.3,16.5,0.67,0.989,ITEN,5.63,3.9,1.73,CCCCCCC(C=C1)=CC=C1C2(C3=CC=C(CCCCCC)C=C3)C4=CC5=C(C(C6=C5SC7=C6SC(/C=C8C(C(C=CC(C#CC)=C9)=C9C\8=C(C#N)\C#N)=O)=C7)(C%10=CC=C(CCCCCC)C=C%10)C%11=CC=C(CCCCCC)C=C%11)C=C4C%12=C2C(SC(/C=C%13C(C(C=CC(C#CC)=C%14)=C%14C\%13=C(C#N)/C#N)=O)=C%15)=C%15S%12,1504.05,PBDB-TF,5.48,3.65,1.83,CC(SC1=C2C3=CC(F)=C(CC(CC)CCCC)S3)=CC1=C(C4=CC(F)=C(CC(CC)CCCC)S4)C5=C2C=C(S5)C6=CC=C(C7=C8C(C(C9=C(CC(CC)CCCC)SC(CC(CC)CCCC)=C9C8=O)=O)=C(C%10=CC=C(C)S%10)S7)S6,38.6,19.3,2,1,1,CB,DIO,NA,,,,
648,288,2018,12.6,12.2,17.5,0.73,0.986,ITPN,5.69,3.91,1.78,CCCCCCC(C=C1)=CC=C1C2(C3=CC=C(CCCCCC)C=C3)C4=CC5=C(C(C6=C5SC7=C6SC(/C=C8C(C(C=CC(C#CC9=CC=CC=C9)=C%10)=C%10C\8=C(C#N)\C#N)=O)=C7)(C%11=CC=C(CCCCCC)C=C%11)C%12=CC=C(CCCCCC)C=C%12)C=C4C%13=C2C(SC(/C=C%14C(C(C=CC(C#CC%15=CC=CC=C%15)=C%16)=C%16C\%14=C(C#N)/C#N)=O)=C%17)=C%17S%13,1628.2,PBDB-TF,5.48,3.65,1.83,CC(SC1=C2C3=CC(F)=C(CC(CC)CCCC)S3)=CC1=C(C4=CC(F)=C(CC(CC)CCCC)S4)C5=C2C=C(S5)C6=CC=C(C7=C8C(C(C9=C(CC(CC)CCCC)SC(CC(CC)CCCC)=C9C8=O)=O)=C(C%10=CC=C(C)S%10)S7)S6,38.6,19.3,2,1,1,CB,DIO,NA,,,,
649,289,2019,5.9,5.7,10.8,0.54,1.01,TflF-IC,5.51,3.77,1.74,O=C1C2=C(C(/C1=C/C3=CC(C4(CCCCCCCC)CCCCCCCC)=C(C5=C4C=C(C6=C7C=C(C8=C9C=C(C%10=C%11C=C(/C=C%12/C(C%13=C(C%12=O)C=CC=C%13)=C(C#N)/C#N)S%10)C(C%11(CCCCCCCC)CCCCCCCC)=C8)C(C9(CCCCCCCC)CCCCCCCC)=C6)C(C7(CCCCCCCC)CCCCCCCC)=C5)S3)=C(C#N)\C#N)C=CC=C2,1748.7,PBDB-T-2F,5.45,3.65,1.8,CC(SC1=C2C3=CC(F)=C(CC(CC)CCCC)S3)=CC1=C(C4=CC(F)=C(CC(CC)CCCC)S4)C5=C2C=C(C6=CC=C(C7=C8C(C(C9=C(CC(CC)CCCC)SC(CC(CC)CCCC)=C9C8=O)=O)=C(C%10=CC=C(C)S%10)S7)S6)S5,87.845,30.282,2.900898223,1,1,CB/CF,DIO,NA,100,,,
650,289,2019,13.1,12.8,17.6,0.76,0.98,TflF-4FIC,5.71,3.96,1.75,O=C1C2=C(C(/C1=C/C3=CC(C4(CCCCCCCC)CCCCCCCC)=C(C5=C4C=C(C6=C7C=C(C8=C9C=C(C%10=C%11C=C(/C=C%12/C(C%13=C(C%12=O)C=C(F)C(F)=C%13)=C(C#N)/C#N)S%10)C(C%11(CCCCCCCC)CCCCCCCC)=C8)C(C9(CCCCCCCC)CCCCCCCC)=C6)C(C7(CCCCCCCC)CCCCCCCC)=C5)S3)=C(C#N)\C#N)C=C(F)C(F)=C2,1820.66,PBDB-T-2F,5.45,3.65,1.8,CC(SC1=C2C3=CC(F)=C(CC(CC)CCCC)S3)=CC1=C(C4=CC(F)=C(CC(CC)CCCC)S4)C5=C2C=C(C6=CC=C(C7=C8C(C(C9=C(CC(CC)CCCC)SC(CC(CC)CCCC)=C9C8=O)=O)=C(C%10=CC=C(C)S%10)S7)S6)S5,87.845,30.282,2.900898223,1,1,CB/CF,DIO,NA,100,,,
651,290,2019,3.09,2.64,8.43,0.366,1,ITCPTC,5.62,3.96,1.66,CCCCCCC(C=C1)=CC=C1C2(C3=CC=C(CCCCCC)C=C3)C4=CC5=C(C(C6=C5SC7=C6SC(/C=C8C(C9=CSC=C9C\8=C(C#N)\C#N)=O)=C7)(C%10=CC=C(CCCCCC)C=C%10)C%11=CC=C(CCCCCC)C=C%11)C=C4C%12=C2C(SC(/C=C%13C(C%14=CSC=C%14C\%13=C(C#N)/C#N)=O)=C%15)=C%15S%12,1440,PTBB-o,5.52,3.37,2.15,CCC(CC1=CC=CC=C1C(C2=C3C=C(C)S2)=C4C(SC(C5=CC=C(C6=C7C(C(C8=C(CC(CC)CCCC)SC(CC(CC)CCCC)=C8C7=O)=O)=C(C9=CC=C(C)S9)S6)S5)=C4)=C3C%10=CC=CC=C%10CC(CCCC)CC)CCCC,44.8,22.4,2,1,1,CF,NA,100,110,,,
652,290,2019,12.22,11.92,18.11,0.702,0.96,ITCPTC,5.62,3.96,1.66,CCCCCCC(C=C1)=CC=C1C2(C3=CC=C(CCCCCC)C=C3)C4=CC5=C(C(C6=C5SC7=C6SC(/C=C8C(C9=CSC=C9C\8=C(C#N)\C#N)=O)=C7)(C%10=CC=C(CCCCCC)C=C%10)C%11=CC=C(CCCCCC)C=C%11)C=C4C%12=C2C(SC(/C=C%13C(C%14=CSC=C%14C\%13=C(C#N)/C#N)=O)=C%15)=C%15S%12,1440,PTBB-m,5.48,3.42,2.06,CCC(CC1=CC(C(C2=C3C=C(C)S2)=C4C(SC(C5=CC=C(C6=C7C(C(C8=C(CC(CC)CCCC)SC(CC(CC)CCCC)=C8C7=O)=O)=C(C9=CC=C(C)S9)S6)S5)=C4)=C3C%10=CC=CC(CC(CCCC)CC)=C%10)=CC=C1)CCCC,44.28,24.6,1.8,1,1,CF,NA,100,110,,,
653,290,2019,9.36,9.15,15.76,0.652,0.91,ITCPTC,5.62,3.96,1.66,CCCCCCC(C=C1)=CC=C1C2(C3=CC=C(CCCCCC)C=C3)C4=CC5=C(C(C6=C5SC7=C6SC(/C=C8C(C9=CSC=C9C\8=C(C#N)\C#N)=O)=C7)(C%10=CC=C(CCCCCC)C=C%10)C%11=CC=C(CCCCCC)C=C%11)C=C4C%12=C2C(SC(/C=C%13C(C%14=CSC=C%14C\%13=C(C#N)/C#N)=O)=C%15)=C%15S%12,1440,PTBB-p,5.41,3.49,1.92,CCC(CC1=CC=C(C(C2=C3C=C(C)S2)=C4C(SC(C5=CC=C(C6=C7C(C(C8=C(CC(CC)CCCC)SC(CC(CC)CCCC)=C8C7=O)=O)=C(C9=CC=C(C)S9)S6)S5)=C4)=C3C%10=CC=C(CC(CCCC)CC)C=C%10)C=C1)CCCC,70.3,37,1.9,1,1,CF,NA,100,110,,,
654,291,2019,2.64,2.64,5.87,0.56,0.9,ERCN,5.5,3.59,1.91,CCCCCCC(C=C1)=CC=C1C(C2=C3SC(C4=C(CCCCCCCC)C=C(/C=C5S/C(N(C\5=O)CC)=C(C#N)/C#N)S4)=C2)(C6=CC=C(CCCCCC)C=C6)C7=C3C=C(C(C8=C9SC(C%10=C(C=C(/C=C%11S/C(N(C\%11=O)CC)=C(C#N)/C#N)S%10)CCCCCCCC)=C8)(C%12=CC=C(CCCCCC)C=C%12)C%13=CC=C(CCCCCC)C=C%13)C9=C7,1702.53,P3HT,5,2.9,2.1,CC1=CC(CCCCCC)=C(C)S1,21.1,11.6,1.818965517,1,1.3,CF,NA,NA,100,,,
655,291,2019,6.4,6.4,11.5,0.623,0.87,ORCN,5.37,3.56,1.81,CCCCCCC(C=C1)=CC=C1C(C2=C3SC(C4=C(OCCCCCCCC)C=C(/C=C5S/C(N(C\5=O)CC)=C(C#N)/C#N)S4)=C2)(C6=CC=C(CCCCCC)C=C6)C7=C3C=C(C(C8=C9SC(C%10=C(C=C(/C=C%11S/C(N(C\%11=O)CC)=C(C#N)/C#N)S%10)OCCCCCCCC)=C8)(C%12=CC=C(CCCCCC)C=C%12)C%13=CC=C(CCCCCC)C=C%13)C9=C7,1734.52,P3HT,5,2.9,2.1,CC1=CC(CCCCCC)=C(C)S1,21.1,11.6,1.818965517,1,1.3,CF,DIO,NA,100,,,
656,292,2019,9.21,9.14,22.27,0.613,0.675,IEICO-4F,5.44,4.19,1.25,CCCCCCC(C=C1)=CC=C1C(C2=C3SC(C4=C(OCC(CC)CCCC)C=C(/C=C5C(C(C=C(F)C(F)=C6)=C6C\5=C(C#N)\C#N)=O)S4)=C2)(C7=CC=C(CCCCCC)C=C7)C8=C3C=C(C(C9=C%10SC(C(S%11)=C(C=C%11/C=C%12/C(C(C=C%13F)=C(C%12=O)C=C%13F)=C(C#N)/C#N)OCC(CCCC)CC)=C9)(C%14=CC=C(CCCCCC)C=C%14)C%15=CC=C(CCCCCC)C=C%15)C%10=C8,1808.42,J52,5.21,2.99,2.22,CC1=CC(C(S1)=C2C3=CC=C(CC(CC)CCCC)S3)=C(C4=C2C=C(C5=CC=C(C6=C(F)C(F)=C(C7=CC=C(C)S7)C8=NN(CC(CCCCCC)CCCCCCCC)N=C68)S5)S4)C9=CC=C(CC(CC)CCCC)S9,170,53.125,3.2,1,1.5,CB,DIO,100,100,,,
657,293,2019,10.91,10.68,17.11,0.694,0.919,AT-NC,5.44,3.8,1.64,O=C(C(C=C(C=CC=C1)C1=C2)=C2C/3=C(C#N)\C#N)C3=C/C4=CC(C5(C6=CC=C(OCC(CC)CCCC)C=C6)C7=CC=C(OCC(CC)CCCC)C=C7)=C(C8=C5C9=CC(C=CC%10=C%11C(C%12=CC=C(OCC(CC)CCCC)C=C%12)(C%13=CC=C(OCC(CC)CCCC)C=C%13)C%14=C%10SC(/C=C%15C(C(C=C(C=CC=C%16)C%16=C%17)=C%17C\%15=C(C#N)\C#N)=O)=C%14)=C%11C=C9C=C8)S4,1692.24,PBDB-T,5.28,3.48,1.8,CC(SC1=C2C3=CC=C(CC(CC)CCCC)S3)=CC1=C(C4=CC=C(CC(CC)CCCC)S4)C5=C2C=C(S5)C6=CC=C(C7=C8C(C(C9=C(CC(CC)CCCC)SC(CC(CC)CCCC)=C9C8=O)=O)=C(C%10=CC=C(C)S%10)S7)S6,117,58.5,2,1,0.8,CB,DIO,100,,,,
658,293,2019,13.27,13.1,19.52,0.755,0.901,AT-4Cl,5.71,3.89,1.82,O=C(C(C=C(Cl)C(Cl)=C1)=C1C/2=C(C#N)\C#N)C2=C/C3=CC(C4(C5=CC=C(OCC(CC)CCCC)C=C5)C6=CC=C(OCC(CC)CCCC)C=C6)=C(C7=C4C8=CC(C=CC9=C%10C(C%11=CC=C(OCC(CC)CCCC)C=C%11)(C%12=CC=C(OCC(CC)CCCC)C=C%12)C%13=C9SC(/C=C%14C(C(C=C(Cl)C(Cl)=C%15)=C%15C\%14=C(C#N)\C#N)=O)=C%13)=C%10C=C8C=C7)S3,1729.89,PBDB-TF,5.45,3.65,1.8,CC(SC1=C2C3=CC(F)=C(CC(CC)CCCC)S3)=CC1=C(C4=CC(F)=C(CC(CC)CCCC)S4)C5=C2C=C(S5)C6=CC=C(C7=C8C(C(C9=C(CC(CC)CCCC)SC(CC(CC)CCCC)=C9C8=O)=O)=C(C%10=CC=C(C)S%10)S7)S6,38.6,19.3,2,1,1,CB,DIO,100,,,,
659,294,2019,9.33,9.02,14.72,0.59,1.07,T2-ORH,5.89,3.64,2.25,S=C(N(C/1=O)CCCCCCCC)SC1=C/C2=CC=C(C3=CC=C(/C=C4SC(N(C\4=O)CCCCCCCC)=S)S3)S2,677.04,PTB7-Th,5.23,3.19,2.04,O=C(OCC(CC)CCCC)C1=C(F)C2=C(C)SC(C3=CC4=C(C(C5=CC=C(CC(CC)CCCC)S5)=C(C=C(C)S6)C6=C4C7=CC=C(CC(CC)CCCC)S7)S3)=C2S1,124,72.9,1.700960219,1,2,CF,NA,140,,,,
660,295,2019,12.3,12.13,17.6,0.734,0.95,ITCPTC,5.62,3.96,1.66,CCCCCCC(C=C1)=CC=C1C2(C3=CC=C(CCCCCC)C=C3)C4=CC5=C(C(C6=C5SC7=C6SC(/C=C8C(C9=CSC=C9C\8=C(C#N)\C#N)=O)=C7)(C%10=CC=C(CCCCCC)C=C%10)C%11=CC=C(CCCCCC)C=C%11)C=C4C%12=C2C(SC(/C=C%13C(C%14=CSC=C%14C\%13=C(C#N)/C#N)=O)=C%15)=C%15S%12,1440,PM6,5.5,3.61,1.89,CC(SC1=C2C3=CC(F)=C(CC(CC)CCCC)S3)=CC1=C(C4=CC(F)=C(CC(CC)CCCC)S4)C5=C2C=C(S5)C6=CC=C(C7=C8C(C(C9=C(CC(CC)CCCC)SC(CC(CC)CCCC)=C9C8=O)=O)=C(C%10=CC=C(C)S%10)S7)S6,38.6,19.3,2,1,1,CF,DIO,100,,,,
661,295,2019,13.6,13.22,20.1,0.741,0.91,ITC-2Cl,5.58,4.01,1.57,CCCCCCC(C=C1)=CC=C1C2(C3=CC=C(CCCCCC)C=C3)C4=CC5=C(C(C6=C5SC7=C6SC(/C=C8C(C9=C(Cl)SC=C9C\8=C(C#N)\C#N)=O)=C7)(C%10=CC=C(CCCCCC)C=C%10)C%11=CC=C(CCCCCC)C=C%11)C=C4C%12=C2C(SC(/C=C%13C(C%14=C(Cl)SC=C%14C\%13=C(C#N)/C#N)=O)=C%15)=C%15S%12,1508.88,PM6,5.5,3.61,1.89,CC(SC1=C2C3=CC(F)=C(CC(CC)CCCC)S3)=CC1=C(C4=CC(F)=C(CC(CC)CCCC)S4)C5=C2C=C(S5)C6=CC=C(C7=C8C(C(C9=C(CC(CC)CCCC)SC(CC(CC)CCCC)=C9C8=O)=O)=C(C%10=CC=C(C)S%10)S7)S6,38.6,19.3,2,1,1,CF,DIO,100,,,,
662,296,2019,8.54,8.54,15.09,0.67,0.85,m-ITIC-H,5.21,3.6,1.61,CCCCCCC1=CC(C2(C3=CC(CCCCCC)=CC=C3)C4=CC5=C(C(C6=C5SC7=C6SC(/C=C8C(C(C=CC=C9)=C9C\8=C(C#N)\C#N)=O)=C7)(C%10=CC=CC(CCCCCC)=C%10)C%11=CC(CCCCCC)=CC=C%11)C=C4C%12=C2C(SC(/C=C%13C(C(C=CC=C%14)=C%14C\%13=C(C#N)/C#N)=O)=C%15)=C%15S%12)=CC=C1,1427.92,PBDB-T,4.89,3.09,1.8,CC(SC1=C2C3=CC=C(CC(CC)CCCC)S3)=CC1=C(C4=CC=C(CC(CC)CCCC)S4)C5=C2C=C(S5)C6=CC=C(C7=C8C(C(C9=C(CC(CC)CCCC)SC(CC(CC)CCCC)=C9C8=O)=O)=C(C%10=CC=C(C)S%10)S7)S6,117,58.5,2,1,1,CB,NA,140,75,,,
663,296,2019,9.55,9.55,15.99,0.7,0.85,m-ITIC-O-H,5.25,3.65,1.6,O=C(C(C=CC=C1)=C1C/2=C(C#N)\C#N)C2=C/C3=CC(S4)=C(S3)C5=C4C6=CC(C(C7=C8SC9=C7SC(/C=C%10C(C(C=CC=C%11)=C%11C\%10=C(C#N)\C#N)=O)=C9)(C%12=CC=CC(OCCCCCC)=C%12)C%13=CC(OCCCCCC)=CC=C%13)=C8C=C6C(C%14=CC(OCCCCCC)=CC=C%14)5C%15=CC=CC(OCCCCCC)=C%15,1491.95,PBDB-T,4.89,3.09,1.8,CC(SC1=C2C3=CC=C(CC(CC)CCCC)S3)=CC1=C(C4=CC=C(CC(CC)CCCC)S4)C5=C2C=C(S5)C6=CC=C(C7=C8C(C(C9=C(CC(CC)CCCC)SC(CC(CC)CCCC)=C9C8=O)=O)=C(C%10=CC=C(C)S%10)S7)S6,117,58.5,2,1,1,CB,NA,140,69,,,
664,296,2019,9.77,9.77,15.88,0.68,0.88,m-ITIC-O-EH,5.25,3.63,1.62,O=C(C(C=CC=C1)=C1C/2=C(C#N)\C#N)C2=C/C3=CC(S4)=C(S3)C5=C4C6=CC(C(C7=C8SC9=C7SC(/C=C%10C(C(C=CC=C%11)=C%11C\%10=C(C#N)\C#N)=O)=C9)(C%12=CC=CC(OCC(CC)CCCC)=C%12)C%13=CC(OCC(CC)CCCC)=CC=C%13)=C8C=C6C(C%14=CC(OCC(CC)CCCC)=CC=C%14)5C%15=CC=CC(OCC(CC)CCCC)=C%15,1604.17,PBDB-T,4.89,3.09,1.8,CC(SC1=C2C3=CC=C(CC(CC)CCCC)S3)=CC1=C(C4=CC=C(CC(CC)CCCC)S4)C5=C2C=C(S5)C6=CC=C(C7=C8C(C(C9=C(CC(CC)CCCC)SC(CC(CC)CCCC)=C9C8=O)=O)=C(C%10=CC=C(C)S%10)S7)S6,117,58.5,2,1,1,CB,NA,140,73,,,
665,297,2019,5.45,5.16,9.33,0.6,0.974,DTN-IC-2Ph,5.88,3.82,2.06,CCCCCCC(C=C1)=CC=C1C(C2=C3SC(/C=C4C(C(C=CC=C5)=C5C\4=C(C#N)/C#N)=O)=C2)(C6=CC=C(CCCCCC)C=C6)C7=CC=C8C9=C7C3=CC=C9C(C%10=C8SC(/C=C%11C(C(C=CC=C%12)=C%12C\%11=C(C#N)\C#N)=O)=C%10)(C%13=CC=C(CCCCCC)C=C%13)C%14=CC=C(CCCCCC)C=C%14,1365.85,PBDB-T,5.23,3.18,2.05,CC(SC1=C2C3=CC=C(CC(CC)CCCC)S3)=CC1=C(C4=CC=C(CC(CC)CCCC)S4)C5=C2C=C(S5)C6=CC=C(C7=C8C(C(C9=C(CC(CC)CCCC)SC(CC(CC)CCCC)=C9C8=O)=O)=C(C%10=CC=C(C)S%10)S7)S6,117,58.5,2,1,1.5,CB,NA,100,120,,,
666,297,2019,6.09,5.76,12.27,0.529,0.938,DTA-IC-3Ph,5.73,3.83,1.9,CCCCCCC(C=C1)=CC=C1C(C2C3SC(/C=C4C(C(C=CC=C5)=C5C\4=C(C#N)/C#N)=O)=C2)(C6=C(C3=CC=C7)C7=C8C9=C6C=CC=C9C%10=C(C(C%11=CC=C(CCCCCC)C=C%11)8C%12=CC=C(CCCCCC)C=C%12)C=C(/C=C%13C(C(C=CC=C%14)=C%14C\%13=C(C#N)\C#N)=O)S%10)C%15=CC=C(CCCCCC)C=C%15,1417.93,PBDB-T,5.23,3.18,2.05,CC(SC1=C2C3=CC=C(CC(CC)CCCC)S3)=CC1=C(C4=CC=C(CC(CC)CCCC)S4)C5=C2C=C(S5)C6=CC=C(C7=C8C(C(C9=C(CC(CC)CCCC)SC(CC(CC)CCCC)=C9C8=O)=O)=C(C%10=CC=C(C)S%10)S7)S6,117,58.5,2,1,1.5,CB,NA,100,120,,,
667,297,2019,10.37,10.14,17.32,0.666,0.9,DTP-IC-4Ph,5.63,3.85,1.78,CCCCCCC(C=C1)=CC=C1C(C2=C3SC(/C=C4C(C(C=CC=C5)=C5C\4=C(C#N)/C#N)=O)=C2)(C6=CC=C(CCCCCC)C=C6)C7=CC8=CC=C(C9=C(C%10(C%11=CC=C(CCCCCC)C=C%11)C%12=CC=C(CCCCCC)C=C%12)C=C(/C=C%13C(C(C=CC=C%14)=C%14C\%13=C(C#N)\C#N)=O)S9)C%15=C8C%16=C(C=C%15%10)C=CC3=C7%16,1439.93,PBDB-T,5.23,3.18,2.05,CC(SC1=C2C3=CC=C(CC(CC)CCCC)S3)=CC1=C(C4=CC=C(CC(CC)CCCC)S4)C5=C2C=C(S5)C6=CC=C(C7=C8C(C(C9=C(CC(CC)CCCC)SC(CC(CC)CCCC)=C9C8=O)=O)=C(C%10=CC=C(C)S%10)S7)S6,117,58.5,2,1,1.5,CB,NA,100,120,,,
668,297,2019,2.17,1.95,6.43,0.405,0.834,DTPy-IC-5Ph,5.31,3.87,1.44,CCCCCCC(C=C1)=CC=C1C(C2=C3SC(/C=C4C(C(C=CC=C5)=C5C\4=C(C#N)/C#N)=O)=C2)(C6=CC=C(CCCCCC)C=C6)C7=C(C3=CC=C89)C8=C(C%10=CC=C%11C%12=C(C(C%13=C%11SC(/C=C%14C(C(C=CC=C%15)=C%15C\%14=C(C#N)\C#N)=O)=C%13)(C%16=CC=C(CCCCCC)C=C%16)C%17=CC=C(CCCCCC)C=C%17)C=CC9=C%12%10)C=C7,1489.99,PBDB-T,5.23,3.18,2.05,CC(SC1=C2C3=CC=C(CC(CC)CCCC)S3)=CC1=C(C4=CC=C(CC(CC)CCCC)S4)C5=C2C=C(S5)C6=CC=C(C7=C8C(C(C9=C(CC(CC)CCCC)SC(CC(CC)CCCC)=C9C8=O)=O)=C(C%10=CC=C(C)S%10)S7)S6,117,58.5,2,1,1.5,CB,NA,100,120,,,
669,298,2018,5.67,5.34,12.7,0.563,0.84,IDTIC,5.85,3.89,1.96,O=C1C2=C(C(/C1=C/C(S3)=CC4=C3C5=CC(C(CCCCCCCCCCCCCCCC)(CCCCCCCCCCCCCCCC)C6=C7SC(/C=C8/C(C9=C(C8=O)C=CC=C9)=C(C#N)/C#N)=C6)=C7C=C5C4(CCCCCCCCCCCCCCCC)CCCCCCCCCCCCCCCC)=C(C#N)/C#N)C=CC=C2,1572.48,PBDB-T,5.33,3.29,2.04,CC(SC1=C2C3=CC=C(CC(CC)CCCC)S3)=CC1=C(C4=CC=C(CC(CC)CCCC)S4)C5=C2C=C(S5)C6=CC=C(C7=C8C(C(C9=C(CC(CC)CCCC)SC(CC(CC)CCCC)=C9C8=O)=O)=C(C%10=CC=C(C)S%10)S7)S6,219,128,1.7109375,1,1,CB,NA,NA,146,,,
670,298,2018,11.2,10.7,17.3,0.704,0.919,IDTTIC,5.68,3.84,1.84,O=C(C(C=CC=C1)=C1C/2=C(C#N)\C#N)C2=C/C3=CC(S4)=C(S3)C5=C4C6=CC(C(CCCCCCCCCCCCCCCC)(CCCCCCCCCCCCCCCC)C7=C8SC9=C7SC(/C=C%10C(C(C=CC=C%11)=C%11C\%10=C(C#N)\C#N)=O)=C9)=C8C=C6C5(CCCCCCCCCCCCCCCC)CCCCCCCCCCCCCCCC,1684.64,PBDB-T,5.33,3.29,2.04,CC(SC1=C2C3=CC=C(CC(CC)CCCC)S3)=CC1=C(C4=CC=C(CC(CC)CCCC)S4)C5=C2C=C(S5)C6=CC=C(C7=C8C(C(C9=C(CC(CC)CCCC)SC(CC(CC)CCCC)=C9C8=O)=O)=C(C%10=CC=C(C)S%10)S7)S6,219,128,1.7109375,1,1,CB,NA,NA,146,,,
671,299,2018,13.18,12.72,19.52,0.747,0.904,BTTIC,5.59,3.86,1.73,CCCCCCC(C=C1)=CC=C1C2(C3=CC=C(CCCCCC)C=C3)C4=C(SC(C4=C5C6=CC=C(CC(CC)CCCC)S6)=C(C7=CC=C(CC(CCCC)CC)S7)C8=C5SC9=C8C(C%10=C9SC(/C=C%11/C(C%12=CSC(C)=C%12C%11=O)=C(C#N)/C#N)=C%10)(C%13=CC=C(CCCCCC)C=C%13)C%14=CC=C(CCCCCC)C=C%14)C%15=C2C=C(/C=C%16C(C%17=C(C)SC=C%17C\%16=C(C#N)/C#N)=O)S%15,1856.73,PBDB-T,5.27,3.08,2.19,CC(SC1=C2C3=CC=C(CC(CC)CCCC)S3)=CC1=C(C4=CC=C(CC(CC)CCCC)S4)C5=C2C=C(S5)C6=CC=C(C7=C8C(C(C9=C(CC(CC)CCCC)SC(CC(CC)CCCC)=C9C8=O)=O)=C(C%10=CC=C(C)S%10)S7)S6,117,58.5,2,1,1,CF,DIO,100,105,,,
672,299,2018,10.96,10.48,18.6,0.684,0.862,BTOIC,5.42,3.94,1.48,CCCCCCC(C=C1)=CC=C1C2(C3=CC=C(CCCCCC)C=C3)C4=C(SC(C4=C5OCC(CC)CCCC)=C(OCC(CCCC)CC)C6=C5SC7=C6C(C8=C7SC(/C=C9/C(C%10=CSC(C)=C%10C9=O)=C(C#N)/C#N)=C8)(C%11=CC=C(CCCCCC)C=C%11)C%12=CC=C(CCCCCC)C=C%12)C%13=C2C=C(/C=C%14C(C%15=C(C)SC=C%15C\%14=C(C#N)/C#N)=O)S%13,1724.48,PBDB-T,5.27,3.08,2.19,CC(SC1=C2C3=CC=C(CC(CC)CCCC)S3)=CC1=C(C4=CC=C(CC(CC)CCCC)S4)C5=C2C=C(S5)C6=CC=C(C7=C8C(C(C9=C(CC(CC)CCCC)SC(CC(CC)CCCC)=C9C8=O)=O)=C(C%10=CC=C(C)S%10)S7)S6,117,58.5,2,1,1,CF,DIO,100,105,,,
673,300,2019,9.22,9.18,15.199,0.67,0.861,ITIC,5.54,3.84,1.7,CCCCCCC(C=C1)=CC=C1C2(C3=CC=C(CCCCCC)C=C3)C4=CC5=C(C(C6=C5SC7=C6SC(/C=C8C(C(C=CC=C9)=C9C\8=C(C#N)\C#N)=O)=C7)(C%10=CC=C(CCCCCC)C=C%10)C%11=CC=C(CCCCCC)C=C%11)C=C4C%12=C2C(SC(/C=C%13C(C(C=CC=C%14)=C%14C\%13=C(C#N)/C#N)=O)=C%15)=C%15S%12,1427.96,PBDB-T,5.33,3.53,1.8,CC(SC1=C2C3=CC=C(CC(CC)CCCC)S3)=CC1=C(C4=CC=C(CC(CC)CCCC)S4)C5=C2C=C(S5)C6=CC=C(C7=C8C(C(C9=C(CC(CC)CCCC)SC(CC(CC)CCCC)=C9C8=O)=O)=C(C%10=CC=C(C)S%10)S7)S6,117,58.5,2,1,1,CB,NA,NA,,,,
674,300,2019,2.85,2.66,7.78,0.382,0.958,ITIF,5.6,3.78,1.82,CCCCCCC(C=C1)=CC=C1C2(C3=CC=C(CCCCCC)C=C3)C4=CC5=C(C(C6=C5SC7=C6SC(/C=C8C(C(C=CC=C9)=C9C\8=C(C#N)\C%10=CC(F)=CC(F)=C%10)=O)=C7)(C%11=CC=C(CCCCCC)C=C%11)C%12=CC=C(CCCCCC)C=C%12)C=C4C%13=C2C(SC(/C=C%14C(C(C=CC=C%15)=C%15C\%14=C(C%16=CC(F)=CC(F)=C%16)/C#N)=O)=C%17)=C%17S%13,1602.09,PBDB-T,5.33,3.53,1.8,CC(SC1=C2C3=CC=C(CC(CC)CCCC)S3)=CC1=C(C4=CC=C(CC(CC)CCCC)S4)C5=C2C=C(S5)C6=CC=C(C7=C8C(C(C9=C(CC(CC)CCCC)SC(CC(CC)CCCC)=C9C8=O)=O)=C(C%10=CC=C(C)S%10)S7)S6,117,58.5,2,1,1,CB,NA,NA,,,,