ID,Ref,year,PCE_max(%),PCE_ave(%),Jsc(mA/cm2),FF,Voc(V),Nickname(n),-HOMO_n(eV),-LUMO_n(eV),Eg_n(eV),n(SMILES),M (g/mol),Nickname(p),-HOMO_p(eV),-LUMO_p(eV),Eg_p(eV),p(SMILES),Mw (kg/mol),Mn(kg/mol),PDI,p/n ratio (p),p/n ratio (n),Solvent,Additive,TA (oC),thick (nm),,Journal,DOI
73,31,2017,6.62,6.49,14.34,0.58,0.8,ITIC,5.51,3.78,1.73,CCCCCCC(C=C1)=CC=C1C2(C3=CC=C(CCCCCC)C=C3)C4=CC5=C(C(C6=C5SC7=C6SC(/C=C8C(C(C=CC=C9)=C9C\8=C(C#N)\C#N)=O)=C7)(C%10=CC=C(CCCCCC)C=C%10)C%11=CC=C(CCCCCC)C=C%11)C=C4C%12=C2C(SC(/C=C%13C(C(C=CC=C%14)=C%14C\%13=C(C#N)/C#N)=O)=C%15)=C%15S%12,1427.96,PTB7-Th,5.29,3.72,1.57,O=C(OCC(CC)CCCC)C1=C(F)C2=C(C)SC(C3=CC4=C(C(C5=CC=C(CC(CC)CCCC)S5)=C(C=C(C)S6)C6=C4C7=CC=C(CC(CC)CCCC)S7)S3)=C2S1,121.4,60.7,2,1,1,CB,DIO,NA,110,,ACS Energy Lett.,10.1021/acsenergylett.7b00551
74,31,2017,7.57,7.47,14.53,0.58,0.91,ITIC,5.51,3.78,1.73,CCCCCCC(C=C1)=CC=C1C2(C3=CC=C(CCCCCC)C=C3)C4=CC5=C(C(C6=C5SC7=C6SC(/C=C8C(C(C=CC=C9)=C9C\8=C(C#N)\C#N)=O)=C7)(C%10=CC=C(CCCCCC)C=C%10)C%11=CC=C(CCCCCC)C=C%11)C=C4C%12=C2C(SC(/C=C%13C(C(C=CC=C%14)=C%14C\%13=C(C#N)/C#N)=O)=C%15)=C%15S%12,1427.96,PTBCl,5.43,3.55,1.88,O=C(C1=C(C2=C(SC(C3=CC4=C(S3)C(C5=CC=C(S5)CC(CCCC)CC)=C6C=C(SC6=C4C7=CC=C(S7)CC(CCCC)CC)C)=C2S1)C)Cl)OCC(CCCC)CC,103,24,4.3,1,1,CB,DIO,NA,100,,ACS Energy Lett.,10.1021/acsenergylett.7b00551
75,32,2018,10.68,10.68,17.71,0.615,0.981,IT-M,5.58,3.98,1.6,CCCCCCC(C=C1)=CC=C1C2(C3=CC=C(CCCCCC)C=C3)C4=CC5=C(C(C6=C5SC7=C6SC(/C=C8C(C(C=CC(C)=C9)=C9C\8=C(C#N)\C#N)=O)=C7)(C%10=CC=C(CCCCCC)C=C%10)C%11=CC=C(CCCCCC)C=C%11)C=C4C%12=C2C(SC(/C=C%13C(C(C=CC(C)=C%14)=C%14C\%13=C(C#N)/C#N)=O)=C%15)=C%15S%12,1456.01,J71,5.4,3.32,2.08,CCC[Si](CCC)(C1=CC=C(C(C2=C3C=C(C4=CC=C(C5=C(F)C(F)=C(C6=CC=C(C)S6)C7=NN(CC(CCCCCC)CCCCCCCC)N=C57)S4)S2)=C8C(SC(C)=C8)=C3C9=CC=C([Si](CCC)(CCC)CCC)S9)S1)CCC,139,56.2,2.47,1,1,CF,NA,NA,,,ACS Energy Lett.,10.1021/acsenergylett.8b00100
76,32,2018,10.65,10.65,16.26,0.682,0.929,ITIC,5.61,4.02,1.59,CCCCCCC(C=C1)=CC=C1C2(C3=CC=C(CCCCCC)C=C3)C4=CC5=C(C(C6=C5SC7=C6SC(/C=C8C(C(C=CC=C9)=C9C\8=C(C#N)\C#N)=O)=C7)(C%10=CC=C(CCCCCC)C=C%10)C%11=CC=C(CCCCCC)C=C%11)C=C4C%12=C2C(SC(/C=C%13C(C(C=CC=C%14)=C%14C\%13=C(C#N)/C#N)=O)=C%15)=C%15S%12,1427.96,J71,5.4,3.32,2.08,CCC[Si](CCC)(C1=CC=C(C(C2=C3C=C(C4=CC=C(C5=C(F)C(F)=C(C6=CC=C(C)S6)C7=NN(CC(CCCCCC)CCCCCCCC)N=C57)S4)S2)=C8C(SC(C)=C8)=C3C9=CC=C([Si](CCC)(CCC)CCC)S9)S1)CCC,139,56.2,2.47,1,1,CF,NA,NA,,,ACS Energy Lett.,10.1021/acsenergylett.8b00100
77,33,2018,12.8,12.1,27.3,0.657,0.712,IEICO-4F,5.44,4.19,1.25,CCCCCCC(C=C1)=CC=C1C(C2=C3SC(C4=C(OCC(CC)CCCC)C=C(/C=C5C(C(C=C(F)C(F)=C6)=C6C\5=C(C#N)\C#N)=O)S4)=C2)(C7=CC=C(CCCCCC)C=C7)C8=C3C=C(C(C9=C%10SC(C(S%11)=C(C=C%11/C=C%12/C(C(C=C%13F)=C(C%12=O)C=C%13F)=C(C#N)/C#N)OCC(CCCC)CC)=C9)(C%14=CC=C(CCCCCC)C=C%14)C%15=CC=C(CCCCCC)C=C%15)C%10=C8,1808.42,PTB7-Th,5.24,3.66,1.58,O=C(OCC(CC)CCCC)C1=C(F)C2=C(C)SC(C3=CC4=C(C(C5=CC=C(CC(CC)CCCC)S5)=C(C=C(C)S6)C6=C4C7=CC=C(CC(CC)CCCC)S7)S3)=C2S1,124,72.9,1.7,1,1.5,CB,CN,NA,150,,ACS Energy Lett.,10.1021/acsenergylett.7b01266
78,34,2018,7.8,7.8,14.4,0.66,0.825,ITIC,5.47,3.76,1.71,CCCCCCC(C=C1)=CC=C1C2(C3=CC=C(CCCCCC)C=C3)C4=CC5=C(C(C6=C5SC7=C6SC(/C=C8C(C(C=CC=C9)=C9C\8=C(C#N)\C#N)=O)=C7)(C%10=CC=C(CCCCCC)C=C%10)C%11=CC=C(CCCCCC)C=C%11)C=C4C%12=C2C(SC(/C=C%13C(C(C=CC=C%14)=C%14C\%13=C(C#N)/C#N)=O)=C%15)=C%15S%12,1427.96,PTB7-Th,5.02,3.44,1.58,O=C(OCC(CC)CCCC)C1=C(F)C2=C(C)SC(C3=CC4=C(C(C5=CC=C(CC(CC)CCCC)S5)=C(C=C(C)S6)C6=C4C7=CC=C(CC(CC)CCCC)S7)S3)=C2S1,124,72.9,1.7,1,2,CB,NA,NA,57,,ACS Energy Lett.,10.1021/acsenergylett.8b00366
79,34,2018,9.1,9.1,15.7,0.57,1.015,IDTT-T,5.51,3.51,2,CCCCCCC(C=C1)=CC=C1C2(C3=CC=C(CCCCCC)C=C3)C4=CC5=C(C(C6=C5SC7=C6SC(/C=C8C(N(CC)C(N(CC)C\8=O)=S)=O)=C7)(C9=CC=C(CCCCCC)C=C9)C%10=CC=C(CCCCCC)C=C%10)C=C4C%11=C2C(SC(/C=C%12C(N(C(N(C\%12=O)CC)=S)CC)=O)=C%13)=C%13S%11,1440.08,PTB7-Th,5.02,3.44,1.58,O=C(OCC(CC)CCCC)C1=C(F)C2=C(C)SC(C3=CC4=C(C(C5=CC=C(CC(CC)CCCC)S5)=C(C=C(C)S6)C6=C4C7=CC=C(CC(CC)CCCC)S7)S3)=C2S1,124,72.9,1.7,1,2,CB,NA,NA,57,,ACS Energy Lett.,10.1021/acsenergylett.8b00366
80,35,2018,8.2,8.06,20.48,0.569,0.704,IEICO-4F,5.44,4.19,1.25,CCCCCCC(C=C1)=CC=C1C(C2=C3SC(C4=C(OCC(CC)CCCC)C=C(/C=C5C(C(C=C(F)C(F)=C6)=C6C\5=C(C#N)\C#N)=O)S4)=C2)(C7=CC=C(CCCCCC)C=C7)C8=C3C=C(C(C9=C%10SC(C(S%11)=C(C=C%11/C=C%12/C(C(C=C%13F)=C(C%12=O)C=C%13F)=C(C#N)/C#N)OCC(CCCC)CC)=C9)(C%14=CC=C(CCCCCC)C=C%14)C%15=CC=C(CCCCCC)C=C%15)C%10=C8,1808.42,J52,5.4,3.32,2.08,CC1=CC(C(S1)=C2C3=CC=C(CC(CC)CCCC)S3)=C(C4=C2C=C(C5=CC=C(C6=C(F)C(F)=C(C7=CC=C(C)S7)C8=NN(CC(CCCCCC)CCCCCCCC)N=C68)S5)S4)C9=CC=C(CC(CC)CCCC)S9,170,53.125,3.2,1,1.3,CB,NA,NA,85,,ACS Energy Lett.,10.1021/acsenergylett.8b00627
81,35,2018,13.18,12.76,22.86,0.679,0.849,i-IEICO-4F,5.75,4.19,1.56,CCCCCCC(C=C1)=CC=C1C(C2=C3SC(C4=C(OCC(CC)CCCC)C(C=C5C(C(C=C(F)C(F)=C6)=C6/C5=C(C#N)/C#N)=O)=CS4)=C2)(C7=CC=C(CCCCCC)C=C7)C8=C3C=C(C(C9=C%10SC(C%11=C(C(/C=C%12\C(C(C=C%13F)=C(C%12=O)C=C%13F)=C(C#N)\C#N)=CS%11)OCC(CCCC)CC)=C9)(C%14=CC=C(CCCCCC)C=C%14)C%15=CC=C(CCCCCC)C=C%15)C%10=C8,1808.42,J52,5.4,3.32,2.08,CC1=CC(C(S1)=C2C3=CC=C(CC(CC)CCCC)S3)=C(C4=C2C=C(C5=CC=C(C6=C(F)C(F)=C(C7=CC=C(C)S7)C8=NN(CC(CCCCCC)CCCCCCCC)N=C68)S5)S4)C9=CC=C(CC(CC)CCCC)S9,170,53.125,3.2,1,1,CB,NA,NA,85,,ACS Energy Lett.,10.1021/acsenergylett.8b00627
82,36,2018,10.29,10.29,17.72,0.6178,0.94,BDCPDT-TTC,5.38,3.78,1.6,O=C1C2=C(C(/C1=C/C(S3)=CC4=C3C(SC(C=C56)=C7C=C6SC8=C5C(C9=CC=C(CCCCCC)C=C9)(C%10=CC=C(CCCCCC)C=C%10)C%11=C8SC(/C=C%12/C(C%13=C(C%12=O)C=CC=C%13)=C(C#N)/C#N)=C%11)=C7C4(C%14=CC=C(CCCCCC)C=C%14)C%15=CC=C(CCCCCC)C=C%15)=C(C#N)\C#N)C=CC=C2,1427.96,PBDB-T,5.36,3.54,1.82,CC(SC1=C2C3=CC=C(CC(CC)CCCC)S3)=CC1=C(C4=CC=C(CC(CC)CCCC)S4)C5=C2C=C(S5)C6=CC=C(C7=C8C(C(C9=C(CC(CC)CCCC)SC(CC(CC)CCCC)=C9C8=O)=O)=C(C%10=CC=C(C)S%10)S7)S6,117,58.5,2,1,1,CB,DIO,NA,,,ACS Energy Lett.,10.1021/acsenergylett.8b00563
83,36,2018,9.33,9.33,16.56,0.6552,0.86,BDCPDT-IC,5.41,3.87,1.56,O=C1C2=C(SC3=C2SC=C3)C(/C1=C/C(S4)=CC5=C4C(SC(C=C67)=C8C=C7SC9=C6C(C%10=CC=C(CCCCCC)C=C%10)(C%11=CC=C(CCCCCC)C=C%11)C%12=C9SC(/C=C%13/C(C(SC%14=C%15SC=C%14)=C%15C%13=O)=C(C#N)/C#N)=C%12)=C8C5(C%16=CC=C(CCCCCC)C=C%16)C%17=CC=C(CCCCCC)C=C%17)=C(C#N)\C#N,1552.16,PBDB-T,5.36,3.54,1.82,CC(SC1=C2C3=CC=C(CC(CC)CCCC)S3)=CC1=C(C4=CC=C(CC(CC)CCCC)S4)C5=C2C=C(S5)C6=CC=C(C7=C8C(C(C9=C(CC(CC)CCCC)SC(CC(CC)CCCC)=C9C8=O)=O)=C(C%10=CC=C(C)S%10)S7)S6,117,58.5,2,1,1,CB,DIO,NA,,,ACS Energy Lett.,10.1021/acsenergylett.8b00563
84,36,2018,8.12,8.12,19.12,0.6067,0.7,BDCPDT-FIC,5.52,4,1.52,O=C1C2=C(C(/C1=C/C(S3)=CC4=C3C(SC(C=C56)=C7C=C6SC8=C5C(C9=CC=C(CCCCCC)C=C9)(C%10=CC=C(CCCCCC)C=C%10)C%11=C8SC(/C=C%12/C(C%13=C(C%12=O)C=C(F)C(F)=C%13)=C(C#N)/C#N)=C%11)=C7C4(C%14=CC=C(CCCCCC)C=C%14)C%15=CC=C(CCCCCC)C=C%15)=C(C#N)\C#N)C=C(F)C(F)=C2,1499.92,PBDB-T,5.36,3.54,1.82,CC(SC1=C2C3=CC=C(CC(CC)CCCC)S3)=CC1=C(C4=CC=C(CC(CC)CCCC)S4)C5=C2C=C(S5)C6=CC=C(C7=C8C(C(C9=C(CC(CC)CCCC)SC(CC(CC)CCCC)=C9C8=O)=O)=C(C%10=CC=C(C)S%10)S7)S6,117,58.5,2,1,1,CB,DIO,NA,,,ACS Energy Lett.,10.1021/acsenergylett.8b00563
85,37,2018,11.23,10.99,15.97,0.761,0.924,IDT6CN-M,5.62,3.9,1.72,CCCCCCC(C=C1)=CC=C1C2(C3=CC=C(CCCCCC)C=C3)C4=CC5=C(C(C6=C5SC7=C6SC(/C=C8C(C(C=CC(C)=C9)=C9C\8=C(C#N)\C#N)=O)=C7)(C%10=CC=C(CCCCCC)C=C%10)C%11=CC=C(CCCCCC)C=C%11)C=C4C%12=C2C=C(/C=C%13C(C(C=C(C)C=C%14)=C%14C\%13=C(C#N)/C#N)=O)S%12,1399.93,PBDB-T,5.27,3.08,2.19,CC(SC1=C2C3=CC=C(CC(CC)CCCC)S3)=CC1=C(C4=CC=C(CC(CC)CCCC)S4)C5=C2C=C(S5)C6=CC=C(C7=C8C(C(C9=C(CC(CC)CCCC)SC(CC(CC)CCCC)=C9C8=O)=O)=C(C%10=CC=C(C)S%10)S7)S6,117,58.5,2,1,1,CF,DIO,100,105,,ACS Energy Lett.,10.1021/acsenergylett.8b00825
86,37,2018,12.43,12.06,17.11,0.789,0.92,IDT8CN-M,5.54,3.91,1.63,CCCCCCC(C=C1)=CC=C1C2(C3=CC=C(CCCCCC)C=C3)C4=CC5=C(C(C6=C5SC7=C6SC(/C=C8C(C(C=CC(C)=C9)=C9C\8=C(C#N)\C#N)=O)=C7)(C%10=CC=C(CCCCCC)C=C%10)C%11=CC=C(CCCCCC)C=C%11)C=C4C%12=C2C(SC%13=C%14SC(/C=C%15C(C(C=C(C)C=C%16)=C%16C\%15=C(C#N)/C#N)=O)=C%13)=C%14S%12,1512.09,PBDB-T,5.27,3.08,2.19,CC(SC1=C2C3=CC=C(CC(CC)CCCC)S3)=CC1=C(C4=CC=C(CC(CC)CCCC)S4)C5=C2C=C(S5)C6=CC=C(C7=C8C(C(C9=C(CC(CC)CCCC)SC(CC(CC)CCCC)=C9C8=O)=O)=C(C%10=CC=C(C)S%10)S7)S6,117,58.5,2,1,1,CF,DIO,100,105,,ACS Energy Lett.,10.1021/acsenergylett.8b00825
87,38,2018,8.85,8.75,18.51,0.59,0.81,IDTT2F,5.57,4.03,1.54,CCCCCCC(C=C1)=CC=C1C2(C3=CC=C(CCCCCC)C=C3)C4=CC5=C(C(C6=C5SC(C7=CC=C(/C=C8C(C(C=C(F)C(F)=C9)=C9C\8=C(C#N)\C#N)=O)S7)=C6)(C%10=CC=C(CCCCCC)C=C%10)C%11=CC=C(CCCCCC)C=C%11)C=C4C%12=C2C=C(C%13=CC=C(/C=C%14/C(C(C=C%15F)=C(C%14=O)C=C%15F)=C(C#N)/C#N)S%13)S%12,1551.99,PBDB-T,5.36,3.54,1.82,CC(SC1=C2C3=CC=C(CC(CC)CCCC)S3)=CC1=C(C4=CC=C(CC(CC)CCCC)S4)C5=C2C=C(S5)C6=CC=C(C7=C8C(C(C9=C(CC(CC)CCCC)SC(CC(CC)CCCC)=C9C8=O)=O)=C(C%10=CC=C(C)S%10)S7)S6,117,58.5,2,1,1,DCB,NA,NA,100,,ACS Energy Lett.,10.1021/acsenergylett.8b00928
88,38,2018,12.79,12.57,20.87,0.72,0.85,IDTOT2F,5.54,3.94,1.6,CCCCCCC(C=C1)=CC=C1C2(C3=CC=C(CCCCCC)C=C3)C4=CC5=C(C(C6=C5SC(C7=CC=C(/C=C8C(C(C=C(F)C(F)=C9)=C9C\8=C(C#N)\C#N)=O)S7)=C6OCCCCCC)(C%10=CC=C(CCCCCC)C=C%10)C%11=CC=C(CCCCCC)C=C%11)C=C4C%12=C2C(OCCCCCC)=C(C%13=CC=C(/C=C%14/C(C(C=C%15F)=C(C%14=O)C=C%15F)=C(C#N)/C#N)S%13)S%12,1752.32,PBDB-T,5.36,3.54,1.82,CC(SC1=C2C3=CC=C(CC(CC)CCCC)S3)=CC1=C(C4=CC=C(CC(CC)CCCC)S4)C5=C2C=C(S5)C6=CC=C(C7=C8C(C(C9=C(CC(CC)CCCC)SC(CC(CC)CCCC)=C9C8=O)=O)=C(C%10=CC=C(C)S%10)S7)S6,117,58.5,2,1,1,DCB,NA,NA,100,,ACS Energy Lett.,10.1021/acsenergylett.8b00928
89,39,2017,5.24,5.24,7.34,0.7,1.02,BTA1,5.51,3.55,1.96,CCCCCCC(C=C1)=CC=C1C2(C3=CC=C(CCCCCC)C=C3)C4=CC5=C(C(C6=C5SC(C(C7=NN(CCCCCCCC)N=C78)=CC=C8/C=C9SC(N(C/9=O)CC)=S)=C6)(C%10=CC=C(CCCCCC)C=C%10)C%11=CC=C(CCCCCC)C=C%11)C=C4C%12=C2C=C(C%13=CC=C(/C=C%14C(N(CC)C(S\%14)=S)=O)C%15=NN(CCCCCCCC)N=C%13%15)S%12,1708.53,P3HT,5,3.1,1.9,CC1=CC(CCCCCC)=C(C)S1,21.1,11.6,1.82,1,0.6,CF,CN,100,,,ACS Macro Lett.,10.1021/acsmacrolett.7b00097
90,39,2017,4.5,4.36,6.15,0.6,1.22,BTA2,5.43,3.38,2.05,CCCCCCC(C=C1)=CC=C1C2(C3=CC=C(CCCCCC)C=C3)C4=CC5=C(C(C6=C5SC(C(C7=NN(CCCCCCCC)N=C78)=CC=C8/C=C9SC(N(C/9=O)CC)=O)=C6)(C%10=CC=C(CCCCCC)C=C%10)C%11=CC=C(CCCCCC)C=C%11)C=C4C%12=C2C=C(C%13=CC=C(/C=C%14C(N(CC)C(S\%14)=O)=O)C%15=NN(CCCCCCCC)N=C%13%15)S%12,1676.41,P3HT,5,3.1,1.9,CC1=CC(CCCCCC)=C(C)S1,21.1,11.6,1.82,1,1.67,CF,DIO,100,,,ACS Macro Lett.,10.1021/acsmacrolett.7b00097
91,40,2018,0.87,0.87,2.39,0.44,0.84,NTz-TH-Np,6.16,3.48,2.68,O=C(N1C2=CC(C(CCCCCC)(CCCCCC)C3C4C=CC=C3)=C4C=C2)C(C5=C6C=CC=C5C1=O)=CC=C6C#CC(S7)=CC=C7C(C8=NSN=C98)=CC%10=C9C=C(C%11=CC=C(C#CC%12=CC=C%13C(N(C(C%14=CC=CC%12=C%14%13)=O)C(C=C%15)=CC%16=C%15C%17C=CC=CC%17C%16(CCCCCC)CCCCCC)=O)S%11)C%18=NSN=C%10%18,1516.02,P3HT,5,3.1,1.9,CC1=CC(CCCCCC)=C(C)S1,21.1,11.6,1.82,1,1,CB,NA,140,100,,ACS Omega,10.1021/acsomega.8b00350
92,40,2018,0.26,0.24,1.2,0.31,0.71,NTz-TF-Np,6.29,3.57,2.72,O=C(N1C2=CC(C(CCCCCC)(CCCCCC)C3C4C=CC=C3)=C4C=C2)C(C5=C6C=CC=C5C1=O)=CC=C6C#CC(S7)=C(F)C(F)=C7C(C8=NSN=C98)=CC%10=C9C=C(C%11=C(F)C(F)=C(C#CC%12=CC=C%13C(N(C(C%14=CC=CC%12=C%14%13)=O)C(C=C%15)=CC%16=C%15C%17C=CC=CC%17C%16(CCCCCC)CCCCCC)=O)S%11)C%18=NSN=C%10%18,1587.98,P3HT,5,3.1,1.9,CC1=CC(CCCCCC)=C(C)S1,21.1,11.6,1.82,1,1,CB,NA,140,100,,ACS Omega,10.1021/acsomega.8b00350
93,40,2018,2.14,2.13,4.5,0.52,0.92,NTz-Thex-Np,6.12,3.42,2.7,O=C(N1C2=CC(C(CCCCCC)(CCCCCC)C3C4C=CC=C3)=C4C=C2)C(C5=C6C=CC=C5C1=O)=CC=C6C#CC(S7)=C(CCCCCC)C=C7C(C8=NSN=C98)=CC%10=C9C=C(C%11=CC(CCCCCC)=C(C#CC%12=CC=C%13C(N(C(C%14=CC=CC%12=C%14%13)=O)C(C=C%15)=CC%16=C%15C%17C=CC=CC%17C%16(CCCCCC)CCCCCC)=O)S%11)C%18=NSN=C%10%18,1684.35,P3HT,5,3.1,1.9,CC1=CC(CCCCCC)=C(C)S1,21.1,11.6,1.82,1,1,CB,NA,140,100,,ACS Omega,10.1021/acsomega.8b00350
94,40,2018,1.6,1.57,3.92,0.45,0.9,NTz-Teh-Np,6.15,3.43,2.72,O=C(N1C2=CC(C(CCCCCC)(CCCCCC)C3C4C=CC=C3)=C4C=C2)C(C5=C6C=CC=C5C1=O)=CC=C6C#CC(S7)=C(CC(CC)CCCC)C=C7C(C8=NSN=C98)=CC%10=C9C=C(C%11=CC(CC(CC)CCCC)=C(C#CC%12=CC=C%13C(N(C(C%14=CC=CC%12=C%14%13)=O)C(C=C%15)=CC%16=C%15C%17C=CC=CC%17C%16(CCCCCC)CCCCCC)=O)S%11)C%18=NSN=C%10%18,1740.45,P3HT,5,3.1,1.9,CC1=CC(CCCCCC)=C(C)S1,21.1,11.6,1.82,1,1,CB,NA,140,100,,ACS Omega,10.1021/acsomega.8b00350
95,41,2018,7.51,7.47,14.79,0.591,0.8,pO-ITIC,5.49,3.71,1.78,O=C(C(C=CC=C1)=C1C/2=C(C#N)\C#N)C2=C/C3=CC(S4)=C(S3)C5=C4C6=CC(C(C7=C8SC9=C7SC(/C=C%10C(C(C=CC=C%11)=C%11C\%10=C(C#N)\C#N)=O)=C9)(C%12=CC=C(OCCCCCC)C=C%12)C%13=CC=C(OCCCCCC)C=C%13)=C8C=C6C(C%14=CC=C(OCCCCCC)C=C%14)5C%15=CC=C(OCCCCCC)C=C%15,1491.95,PTB7-Th,5.24,3.66,1.58,O=C(OCC(CC)CCCC)C1=C(F)C2=C(C)SC(C3=CC4=C(C(C5=CC=C(CC(CC)CCCC)S5)=C(C=C(C)S6)C6=C4C7=CC=C(CC(CC)CCCC)S7)S3)=C2S1,124,72.9,1.7,1,1,DCB,NA,NA,,,ACS Sustainable Chem. Eng.,10.1021/acssuschemeng.7b03606
96,41,2018,7.33,7.24,14.19,0.601,0.8,mO-ITIC,5.5,3.74,1.76,O=C(C(C=CC=C1)=C1C/2=C(C#N)\C#N)C2=C/C3=CC(S4)=C(S3)C5=C4C6=CC(C(C7=C8SC9=C7SC(/C=C%10/C(C%11=C(C%10=O)C=CC=C%11)=C(C#N)/C#N)=C9)(C%12=CC=CC(OCCCCCC)=C%12)C%13=CC(OCCCCCC)=CC=C%13)=C8C=C6C(C%14=CC(OCCCCCC)=CC=C%14)5C%15=CC=CC(OCCCCCC)=C%15,1491.95,PTB7-Th,5.24,3.66,1.58,O=C(OCC(CC)CCCC)C1=C(F)C2=C(C)SC(C3=CC4=C(C(C5=CC=C(CC(CC)CCCC)S5)=C(C=C(C)S6)C6=C4C7=CC=C(CC(CC)CCCC)S7)S3)=C2S1,124,72.9,1.7,1,1,DCB,NA,NA,,,ACS Sustainable Chem. Eng.,10.1021/acssuschemeng.7b03606
97,41,2018,6.17,6.1,12.99,0.567,0.78,FpO-ITIC,5.61,3.72,1.89,O=C(C(C=CC=C1)=C1C/2=C(C#N)\C#N)C2=C/C3=CC(S4)=C(S3)C5=C4C6=CC(C(C7=C8SC9=C7SC(/C=C%10C(C(C=CC=C%11)=C%11C\%10=C(C#N)\C#N)=O)=C9)(C%12=CC(F)=C(OCCCCCC)C=C%12)C%13=CC(F)=C(OCCCCCC)C=C%13)=C8C=C6C(C%14=CC=C(OCCCCCC)C(F)=C%14)5C%15=CC(F)=C(OCCCCCC)C=C%15,1563.91,PTB7-Th,5.24,3.66,1.58,O=C(OCC(CC)CCCC)C1=C(F)C2=C(C)SC(C3=CC4=C(C(C5=CC=C(CC(CC)CCCC)S5)=C(C=C(C)S6)C6=C4C7=CC=C(CC(CC)CCCC)S7)S3)=C2S1,124,72.9,1.7,1,1,DCB,NA,NA,,,ACS Sustainable Chem. Eng.,10.1021/acssuschemeng.7b03606
98,41,2018,7.31,7.25,13.82,0.616,0.8,ITIC,5.5,3.71,1.79,CCCCCCC(C=C1)=CC=C1C2(C3=CC=C(CCCCCC)C=C3)C4=CC5=C(C(C6=C5SC7=C6SC(/C=C8C(C(C=CC=C9)=C9C\8=C(C#N)\C#N)=O)=C7)(C%10=CC=C(CCCCCC)C=C%10)C%11=CC=C(CCCCCC)C=C%11)C=C4C%12=C2C(SC(/C=C%13C(C(C=CC=C%14)=C%14C\%13=C(C#N)/C#N)=O)=C%15)=C%15S%12,1427.96,PTB7-Th,5.24,3.66,1.58,O=C(OCC(CC)CCCC)C1=C(F)C2=C(C)SC(C3=CC4=C(C(C5=CC=C(CC(CC)CCCC)S5)=C(C=C(C)S6)C6=C4C7=CC=C(CC(CC)CCCC)S7)S3)=C2S1,124,72.9,1.7,1,1.3,DCB,NA,NA,,,ACS Sustainable Chem. Eng.,10.1021/acssuschemeng.7b03606
99,41,2018,9.03,8.84,14.56,0.674,0.92,pO-ITIC,5.49,3.71,1.78,O=C(C(C=CC=C1)=C1C/2=C(C#N)\C#N)C2=C/C3=CC(S4)=C(S3)C5=C4C6=CC(C(C7=C8SC9=C7SC(/C=C%10C(C(C=CC=C%11)=C%11C\%10=C(C#N)\C#N)=O)=C9)(C%12=CC=C(OCCCCCC)C=C%12)C%13=CC=C(OCCCCCC)C=C%13)=C8C=C6C(C%14=CC=C(OCCCCCC)C=C%14)5C%15=CC=C(OCCCCCC)C=C%15,1491.95,PTZ-DO,5.43,2.93,2.5,CC(SC1=C2C3=CC(CCCCCCCC)=C(CCCCCCCC)S3)=CC1=C(C4=CC(CCCCCCCC)=C(CCCCCCCC)S4)C5=C2C=C(S5)C6=CC(CCCCCC)=C(C7=NC(SC(C8=C(CCCCCC)C=C(C)S8)=N9)=C9S7)S6,56.3,24.3,2.31,1,1,DCB,NA,NA,,,ACS Sustainable Chem. Eng.,10.1021/acssuschemeng.7b03606
100,41,2018,9.28,8.96,15.18,0.664,0.92,mO-ITIC,5.5,3.74,1.76,O=C(C(C=CC=C1)=C1C/2=C(C#N)\C#N)C2=C/C3=CC(S4)=C(S3)C5=C4C6=CC(C(C7=C8SC9=C7SC(/C=C%10/C(C%11=C(C%10=O)C=CC=C%11)=C(C#N)/C#N)=C9)(C%12=CC=CC(OCCCCCC)=C%12)C%13=CC(OCCCCCC)=CC=C%13)=C8C=C6C(C%14=CC(OCCCCCC)=CC=C%14)5C%15=CC=CC(OCCCCCC)=C%15,1491.95,PTZ-DO,5.43,2.93,2.5,CC(SC1=C2C3=CC(CCCCCCCC)=C(CCCCCCCC)S3)=CC1=C(C4=CC(CCCCCCCC)=C(CCCCCCCC)S4)C5=C2C=C(S5)C6=CC(CCCCCC)=C(C7=NC(SC(C8=C(CCCCCC)C=C(C)S8)=N9)=C9S7)S6,56.3,24.3,2.31,1,1,DCB,NA,NA,,,ACS Sustainable Chem. Eng.,10.1021/acssuschemeng.7b03606
101,41,2018,6.69,6.59,12.55,0.606,0.88,FpO-ITIC,5.61,3.72,1.89,O=C(C(C=CC=C1)=C1C/2=C(C#N)\C#N)C2=C/C3=CC(S4)=C(S3)C5=C4C6=CC(C(C7=C8SC9=C7SC(/C=C%10C(C(C=CC=C%11)=C%11C\%10=C(C#N)\C#N)=O)=C9)(C%12=CC(F)=C(OCCCCCC)C=C%12)C%13=CC(F)=C(OCCCCCC)C=C%13)=C8C=C6C(C%14=CC=C(OCCCCCC)C(F)=C%14)5C%15=CC(F)=C(OCCCCCC)C=C%15,1563.91,PTZ-DO,5.43,2.93,2.5,CC(SC1=C2C3=CC(CCCCCCCC)=C(CCCCCCCC)S3)=CC1=C(C4=CC(CCCCCCCC)=C(CCCCCCCC)S4)C5=C2C=C(S5)C6=CC(CCCCCC)=C(C7=NC(SC(C8=C(CCCCCC)C=C(C)S8)=N9)=C9S7)S6,56.3,24.3,2.31,1,1,DCB,NA,NA,,,ACS Sustainable Chem. Eng.,10.1021/acssuschemeng.7b03606
102,41,2018,8.05,7.83,14.3,0.612,0.92,ITIC,5.5,3.71,1.79,CCCCCCC(C=C1)=CC=C1C2(C3=CC=C(CCCCCC)C=C3)C4=CC5=C(C(C6=C5SC7=C6SC(/C=C8C(C(C=CC=C9)=C9C\8=C(C#N)\C#N)=O)=C7)(C%10=CC=C(CCCCCC)C=C%10)C%11=CC=C(CCCCCC)C=C%11)C=C4C%12=C2C(SC(/C=C%13C(C(C=CC=C%14)=C%14C\%13=C(C#N)/C#N)=O)=C%15)=C%15S%12,1427.96,PTZ-DO,5.43,2.93,2.5,CC(SC1=C2C3=CC(CCCCCCCC)=C(CCCCCCCC)S3)=CC1=C(C4=CC(CCCCCCCC)=C(CCCCCCCC)S4)C5=C2C=C(S5)C6=CC(CCCCCC)=C(C7=NC(SC(C8=C(CCCCCC)C=C(C)S8)=N9)=C9S7)S6,56.3,24.3,2.31,1,1,DCB,NA,NA,,,ACS Sustainable Chem. Eng.,10.1021/acssuschemeng.7b03606
103,42,2011,0.01,0.01,0.21,0.22,0.25,PDI1,5.9,3.8,2.1,O=C(N(C(CCCCCCC)CCCCCCC)C1=O)C2=CC=C(C3=C4C=CC1C32)C5=CC=C6C7=C5C4=CC=C7C(N(C(CCCCCCC)CCCCCCC)C6=O)=O,813.18,P3HT,5,3.1,1.9,CC1=CC(CCCCCC)=C(C)S1,21.1,11.6,1.82,1,1,CF,NA,NA,100,,Adv. Energy Mater.,10.1002/aenm.201000006
104,42,2011,0.25,0.25,1.49,0.35,0.48,PDI2,5.9,3.8,2.1,O=C(N(C(CC)CC)C1=O)C2=CC=C(C3=C4C=CC1C32)C5=CC=C6C7=C5C4=CC=C7C(N(C(CC)CC)C6=O)=O,532.64,P3HT,5,3.1,1.9,CC1=CC(CCCCCC)=C(C)S1,21.1,11.6,1.82,1,1,CF,NA,NA,100,,Adv. Energy Mater.,10.1002/aenm.201000006
105,42,2011,0.5,0.5,1.74,0.38,0.75,PDI3,5.9,3.8,2.1,O=C(N(C(CC)CC)C1=O)C2=C(CCC(C)(C)C)C=C(C3=C4C=C(CCC(C)(C)C)C1C32)C5=CC(CCC(C)(C)C)=C6C7=C5C4=CC(CCC(C)(C)C)=C7C(N(C(CC)CC)C6=O)=O,869.29,P3HT,5,3.1,1.9,CC1=CC(CCCCCC)=C(C)S1,21.1,11.6,1.82,1,1,CB,NA,NA,100,,Adv. Energy Mater.,10.1002/aenm.201000006
106,43,2011,0.28,0.28,1.45,0.48,0.4,DCN-4CQA,5.75,4,1.75,O=C1C2=CC=CC=C2N(CCCC)C3C1C=C(N4CCCC)C(C(C5C4C=CC=C5)=O)=C3,428.58,P3HT,5,3.1,1.9,CC1=CC(CCCCCC)=C(C)S1,21.1,11.6,1.82,1,1,CF/DCB,NA,NA,100,,Adv. Energy Mater.,10.1002/aenm.201100082
107,43,2011,0.3,0.3,1.45,0.49,0.42,DCN-6CQA,5.8,4,1.8,O=C1C2=CC=CC=C2N(CCCCCC)C3C1C=C(N4CCCCCC)C(C(C5C4C=CC=C5)=O)=C3,484.68,P3HT,5,3.1,1.9,CC1=CC(CCCCCC)=C(C)S1,21.1,11.6,1.82,1,1,CF/DCB,NA,NA,100,,Adv. Energy Mater.,10.1002/aenm.201100082
108,43,2011,1.57,1.57,5.72,0.57,0.48,DCN-8CQA,5.9,4.1,1.8,O=C1C2=CC=CC=C2N(CCCCCCCC)C3C1C=C(N4CCCCCCCC)C(C(C5C4C=CC=C5)=O)=C3,540.79,P3HT,5,3.1,1.9,CC1=CC(CCCCCC)=C(C)S1,21.1,11.6,1.82,1,1,CF/DCB,NA,NA,100,,Adv. Energy Mater.,10.1002/aenm.201100082
109,44,2011,1.45,1.45,3.51,0.52,0.82,NDI-3TH,5.5,4.1,1.4,O=C(N(CC(CC)CCCC)C1=O)C2=C(C3=CC=C(C4=CC=C(C5=CC=C(CCCCCC)S5)S4)S3)C=C(C(N6CC(CC)CCCC)=O)C7=C2C1=CC(C8=CC=C(C9=CC=C(C%10=CC=C(CCCCCC)S%10)S9)S8)=C7C6=O,1151.69,P3HT,4.9,3.1,1.8,CC1=CC(CCCCCC)=C(C)S1,21.1,11.6,1.82,1,1,DCB,NA,100,70,,Adv. Energy Mater.,10.1002/aenm.201100285
110,45,2015,2.51,2.51,8.04,0.46,0.73,NIDCS,5.9,3.42,2.48,O=C(N(CC(CC)CCCC)C1=O)C2=CC=CC3=C2C1=CC=C3C4=CC=C(/C(C#N)=C/C5=CC=C(/C=C(C#N)/C(S6)=CC=C6C7=CC=C8C9=C7C=CC=C9C(N(CC(CC)CCCC)C8=O)=O)C=C5)S4,959.24,P3HT,4.9,3.1,1.8,CC1=CC(CCCCCC)=C(C)S1,21.1,11.6,1.82,1,2.5,CF,NA,100,,,Adv. Energy Mater.,10.1002/aenm.201400929
111,45,2015,1.32,1.32,6.23,0.43,0.54,NIDCS-MO,5.75,3.66,2.09,O=C(N(CC(CC)CCCC)C1=O)C2=CC=CC3=C2C1=CC=C3C4=CC=C(/C(C#N)=C/C5=C(OC)C=C(/C=C(C#N)/C(S6)=CC=C6C7=CC=C8C9=C7C=CC=C9C(N(CC(CC)CCCC)C8=O)=O)C(OC)=C5)S4,1019.29,P3HT,4.9,3.1,1.8,CC1=CC(CCCCCC)=C(C)S1,21.1,11.6,1.82,1,2.5,CF,NA,110,,,Adv. Energy Mater.,10.1002/aenm.201400929
112,45,2015,2.5,2.5,8.15,0.47,0.67,NIDCS-HO,5.79,3.42,2.37,O=C(N(CC(CC)CCCC)C1=O)C2=CC=CC3=C2C1=CC=C3C4=CC=C(/C(C#N)=C/C5=C(OCCCCCC)C=C(/C=C(C#N)/C(S6)=CC=C6C7=CC=C8C9=C7C=CC=C9C(N(CC(CC)CCCC)C8=O)=O)C(OCCCCCC)=C5)S4,1159.56,P3HT,4.9,3.1,1.8,CC1=CC(CCCCCC)=C(C)S1,21.1,11.6,1.82,1,2.5,CF,NA,90,,,Adv. Energy Mater.,10.1002/aenm.201400929
113,46,2015,3.02,2.87,6.64,0.48,0.94,BNIDPA-BO,5.8,3.6,2.2,O=C(N(CC(CCCC)CCCCCC)C1=O)C2=CC=C3C4=C2C1=CC=C4C5=NC6=C(C=C(N=C7C(C8=CC=C9C%10=C8C7=CC=C%10C(N(CC(CCCC)CCCCCC)C9=O)=O)=C%11C%12=CC=CC=C%12)C%11=C6)C(C%13=CC=CC=C%13)=C53,1055.38,PSEHTT,5.1,3.3,1.8,CC1=CC(CC(CC)CCCC)=C(C2=NC(SC(C3=C(CC(CCCC)CC)C=C(C4=CC([Si](CC(CC)CCCC)(CC(CCCC)CC)C5=C6SC(C)=C5)=C6S4)S3)=N7)=C7S2)S1,132.21,33.9,3.9,1,4,CB/DCB,NA,175,,,Adv. Energy Mater.,10.1002/aenm.201402041
114,46,2015,3,2.91,9.02,0.35,0.96,BNIDPA-BO,5.8,3.6,2.2,O=C(N(CC(CCCC)CCCCCC)C1=O)C2=CC=C3C4=C2C1=CC=C4C5=NC6=C(C=C(N=C7C(C8=CC=C9C%10=C8C7=CC=C%10C(N(CC(CCCC)CCCCCC)C9=O)=O)=C%11C%12=CC=CC=C%12)C%11=C6)C(C%13=CC=CC=C%13)=C53,1055.38,PTB7-Th,5.4,3.3,2.1,O=C(OCC(CC)CCCC)C1=C(F)C2=C(C)SC(C3=CC4=C(C(C5=CC=C(CC(CC)CCCC)S5)=C(C=C(C)S6)C6=C4C7=CC=C(CC(CC)CCCC)S7)S3)=C2S1,124,72.9,1.7,1,3,CB/DCB,NA,NA,,,Adv. Energy Mater.,10.1002/aenm.201402041