ID,Ref,year,PCE_max(%),PCE_ave(%),Jsc(mA/cm2),FF,Voc(V),Nickname(n),-HOMO_n(eV),-LUMO_n(eV),Eg_n(eV),n(SMILES),M (g/mol),Nickname(p),-HOMO_p(eV),-LUMO_p(eV),Eg_p(eV),p(SMILES),Mw (kg/mol),Mn(kg/mol),PDI,p/n ratio (p),p/n ratio (n),Solvent,Additive,TA (oC),thick (nm),,Journal,DOI
152,61,2018,7.4,6.4,20.3,0.563,0.56,COTIC-4F,5.26,4.16,1.1,O=C(C(C=C(F)C(F)=C1)=C1C/2=C(C#N)\C#N)C2=C/C(S3)=CC(OCC(CC)CCCCC)=C3C(S4)=CC5=C4C(SC(C6=C(OCC(CC)CCCCC)C=C(/C=C7C(C(C=C(F)C(F)=C8)=C8C\7=C(C#N)\C#N)=O)S6)=C9)=C9C5(CC(CC)CCCC)CC(CC)CCCC,1331.76,PTB7-Th,5.2,3.61,1.59,O=C(OCC(CC)CCCC)C1=C(F)C2=C(C)SC(C3=CC4=C(C(C5=CC=C(CC(CC)CCCC)S5)=C(C=C(C)S6)C6=C4C7=CC=C(CC(CC)CCCC)S7)S3)=C2S1,124,72.9,1.7,1,1.5,CB,CN,NA,,,Adv. Energy Mater.,10.1002/aenm.201801212
153,62,2018,9.67,9.24,17.2,0.68,0.827,ITIC,5.6,3.86,1.74,CCCCCCC(C=C1)=CC=C1C2(C3=CC=C(CCCCCC)C=C3)C4=CC5=C(C(C6=C5SC7=C6SC(/C=C8C(C(C=CC=C9)=C9C\8=C(C#N)\C#N)=O)=C7)(C%10=CC=C(CCCCCC)C=C%10)C%11=CC=C(CCCCCC)C=C%11)C=C4C%12=C2C(SC(/C=C%13C(C(C=CC=C%14)=C%14C\%13=C(C#N)/C#N)=O)=C%15)=C%15S%12,1427.96,PBDT-TT,5.23,3.34,1.89,CC(SC1=C2C3=CC=C(CC(CC)CCCC)S3)=CC1=C(C4=CC=C(CC(CC)CCCC)S4)C5=C2C=C(S5)C6=CC=C(C7=C(C(OCC(CC)CCCC)=O)C8=C(C(C(OCC(CC)CCCC)=O)=C(C9=CC=CS9)S8)S7)S6,233.757,136.7,1.71,1,1.5,DCB,NA,150,100,,Adv. Energy Mater.,10.1002/aenm.201801214
154,62,2018,11.38,10.83,17.9,0.71,0.895,IT-M,5.58,3.82,1.76,CCCCCCC(C=C1)=CC=C1C2(C3=CC=C(CCCCCC)C=C3)C4=CC5=C(C(C6=C5SC7=C6SC(/C=C8C(C(C=CC(C)=C9)=C9C\8=C(C#N)\C#N)=O)=C7)(C%10=CC=C(CCCCCC)C=C%10)C%11=CC=C(CCCCCC)C=C%11)C=C4C%12=C2C(SC(/C=C%13C(C(C=CC(C)=C%14)=C%14C\%13=C(C#N)/C#N)=O)=C%15)=C%15S%12,1456.01,PBDT-TT,5.23,3.34,1.89,CC(SC1=C2C3=CC=C(CC(CC)CCCC)S3)=CC1=C(C4=CC=C(CC(CC)CCCC)S4)C5=C2C=C(S5)C6=CC=C(C7=C(C(OCC(CC)CCCC)=O)C8=C(C(C(OCC(CC)CCCC)=O)=C(C9=CC=CS9)S8)S7)S6,233.757,136.7,1.71,1,1.5,DCB,NA,150,100,,Adv. Energy Mater.,10.1002/aenm.201801214
155,62,2018,11.03,10.51,21.4,0.64,0.805,6TIC,5.45,3.94,1.51,O=C(C(C=CC=C1)=C1C/2=C(C#N)/C#N)C2=C/C3=CC(SC4=C5C(C6=CC=C(CCCCCC)C=C6)(C7=CC=C(CCCCCC)C=C7)C8=C4SC9=C8SC%10=C9C(C%11=CC=C(CCCCCC)C=C%11)(C%12=CC=C(CCCCCC)C=C%12)C%13=C%10SC%14=C%13SC(/C=C%15C(C(C=CC=C%16)=C%16C\%15=C(C#N)\C#N)=O)=C%14)=C5S3,1490.06,PBDT-TT,5.23,3.34,1.89,CC(SC1=C2C3=CC=C(CC(CC)CCCC)S3)=CC1=C(C4=CC=C(CC(CC)CCCC)S4)C5=C2C=C(S5)C6=CC=C(C7=C(C(OCC(CC)CCCC)=O)C8=C(C(C(OCC(CC)CCCC)=O)=C(C9=CC=CS9)S8)S7)S6,233.757,136.7,1.71,1,1.5,DCB,NA,150,100,,Adv. Energy Mater.,10.1002/aenm.201801214
156,63,2018,11.3,11.3,20.9,0.654,0.82,IXIC,5.13,3.78,1.35,O=C(C(C=CC=C1)=C1C/2=C(C#N)/C#N)C2=C/C3=CC(SC4=C5C(C6=CC=C(CCCCCC)C=C6)(C7=CC=C(CCCCCC)C=C7)C8=C4SC9=C8SC%10=C9C(C%11=CC=C(CCCCCC)C=C%11)(C%12=CC=C(CCCCCC)C=C%12)C%13=C%10SC%14=C%13SC(/C=C%15C(C(C=CC=C%16)=C%16C\%15=C(C#N)\C#N)=O)=C%14)=C5S3,1490.06,PBDB-T,5.26,3.63,1.63,CC(SC1=C2C3=CC=C(CC(CC)CCCC)S3)=CC1=C(C4=CC=C(CC(CC)CCCC)S4)C5=C2C=C(S5)C6=CC=C(C7=C8C(C(C9=C(CC(CC)CCCC)SC(CC(CC)CCCC)=C9C8=O)=O)=C(C%10=CC=C(C)S%10)S7)S6,117,58.5,2,1,1,CF,NA,100,,,Adv. Energy Mater.,10.1002/aenm.201801203
157,63,2018,12.2,12.2,23.6,0.709,0.73,IXIC-2Cl,5.2,3.9,1.3,O=C(C(C=CC(Cl)=C1)=C1C/2=C(C#N)/C#N)C2=C/C3=CC(SC4=C5C(C6=CC=C(CCCCCC)C=C6)(C7=CC=C(CCCCCC)C=C7)C8=C4SC9=C8SC%10=C9C(C%11=CC=C(CCCCCC)C=C%11)(C%12=CC=C(CCCCCC)C=C%12)C%13=C%10SC%14=C%13SC(/C=C%15C(C(C=CC(Cl)=C%16)=C%16C\%15=C(C#N)\C#N)=O)=C%14)=C5S3,1558.94,PBDB-T,5.26,3.63,1.63,CC(SC1=C2C3=CC=C(CC(CC)CCCC)S3)=CC1=C(C4=CC=C(CC(CC)CCCC)S4)C5=C2C=C(S5)C6=CC=C(C7=C8C(C(C9=C(CC(CC)CCCC)SC(CC(CC)CCCC)=C9C8=O)=O)=C(C%10=CC=C(C)S%10)S7)S6,117,58.5,2,1,1,CF,NA,100,,,Adv. Energy Mater.,10.1002/aenm.201801203
158,63,2018,11.2,11.2,22.9,0.712,0.69,IXIC-4Cl,5.2,3.95,1.25,O=C(C(C=C(Cl)C(Cl)=C1)=C1C/2=C(C#N)/C#N)C2=C/C3=CC(SC4=C5C(C6=CC=C(CCCCCC)C=C6)(C7=CC=C(CCCCCC)C=C7)C8=C4SC9=C8SC%10=C9C(C%11=CC=C(CCCCCC)C=C%11)(C%12=CC=C(CCCCCC)C=C%12)C%13=C%10SC%14=C%13SC(/C=C%15C(C(C=C(Cl)C(Cl)=C%16)=C%16C\%15=C(C#N)\C#N)=O)=C%14)=C5S3,1627.83,PBDB-T,5.26,3.63,1.63,CC(SC1=C2C3=CC=C(CC(CC)CCCC)S3)=CC1=C(C4=CC=C(CC(CC)CCCC)S4)C5=C2C=C(S5)C6=CC=C(C7=C8C(C(C9=C(CC(CC)CCCC)SC(CC(CC)CCCC)=C9C8=O)=O)=C(C%10=CC=C(C)S%10)S7)S6,117,58.5,2,1,1,CF,NA,100,,,Adv. Energy Mater.,10.1002/aenm.201801203
159,64,2018,8.7,8.5,16.2,0.7,0.748,ITIC-2F,5.55,3.99,1.56,CCCCCCC(C=C1)=CC=C1C2(C3=CC=C(CCCCCC)C=C3)C4=CC5=C(C(C6=C5SC7=C6SC(/C=C8C(C(C=CC(F)=C9)=C9C\8=C(C#N)\C#N)=O)=C7)(C%10=CC=C(CCCCCC)C=C%10)C%11=CC=C(CCCCCC)C=C%11)C=C4C%12=C2C(SC(/C=C%13C(C(C=CC(F)=C%14)=C%14C\%13=C(C#N)/C#N)=O)=C%15)=C%15S%12,1463.94,PTB7-Th,5.2,3.61,1.59,O=C(OCC(CC)CCCC)C1=C(F)C2=C(C)SC(C3=CC4=C(C(C5=CC=C(CC(CC)CCCC)S5)=C(C=C(C)S6)C6=C4C7=CC=C(CC(CC)CCCC)S7)S3)=C2S1,124,72.9,1.7,1,1.5,CB,DIO,NA,132,,Adv. Energy Mater.,10.1002/aenm.201801209
160,64,2018,12.1,11.6,21.9,0.65,0.817,IOTIC-2F,5.34,4.03,1.31,CCCCCCC(C=C1)=CC=C1C2(C3=CC=C(CCCCCCC)C=C3)C4=CC5=C(C(C6=C5SC(C7=C(OCC(CC)CCCC)C=C(/C=C8C(C(C=CC(F)=C9)=C9C\8=C(C#N)\C#N)=O)S7)=C6)(C%10=CC=C(CCCCCC)C=C%10)C%11=CC=C(CCCCCC)C=C%11)C=C4C%12=C2C=C(C%13=C(OCC(CC)CCCC)C=C(/C=C%14C(C(C=CC(F)=C%15)=C%15C\%14=C(C#N)/C#N)=O)S%13)S%12,1786.47,PTB7-Th,5.2,3.61,1.59,O=C(OCC(CC)CCCC)C1=C(F)C2=C(C)SC(C3=CC4=C(C(C5=CC=C(CC(CC)CCCC)S5)=C(C=C(C)S6)C6=C4C7=CC=C(CC(CC)CCCC)S7)S3)=C2S1,124,72.9,1.7,1,1.5,CB,DIO,NA,90,,Adv. Energy Mater.,10.1002/aenm.201801209
161,64,2018,3.7,3.3,7,0.61,0.785,ITOTIC-2F,5.22,3.9,1.32,CCCCCCC(C=C1)=CC=C1C2(C3=CC=C(CCCCCCC)C=C3)C4=CC5=C(C(C6=C5SC7=C6SC(C8=C(OCC(CC)CCCC)C=C(C=C9C(C(C=CC(F)=C%10)=C%10/C9=C(C#N)/C#N)=O)S8)=C7)(C%11=CC=C(CCCCCC)C=C%11)C%12=CC=C(CCCCCC)C=C%12)C=C4C%13=C2C(SC(C%14=C(OCC(CC)CCCC)C=C(/C=C%15C(C(C=CC(F)=C%16)=C%16C\%15=C(C#N)/C#N)=O)S%14)=C%17)=C%17S%13,1898.63,PTB7-Th,5.2,3.61,1.59,O=C(OCC(CC)CCCC)C1=C(F)C2=C(C)SC(C3=CC4=C(C(C5=CC=C(CC(CC)CCCC)S5)=C(C=C(C)S6)C6=C4C7=CC=C(CC(CC)CCCC)S7)S3)=C2S1,124,72.9,1.7,1,1.5,CB,CN,NA,,,Adv. Energy Mater.,10.1002/aenm.201801209
162,65,2018,12.62,12.62,20.12,0.727,0.864,IDTO-T-4F,5.49,3.88,1.61,CCCCCCC(C=C1)=CC=C1C(C2=C3SC(C4=CC=C(/C=C5C(C(C=C(F)C(F)=C6)=C6C\5=C(C#N)\C#N)=O)S4)=C2OCCCCCCCC)(C7=CC=C(CCCCCC)C=C7)C8=C3C=C(C(C9=C%10SC(C%11=CC=C(/C=C%12/C(C(C=C%13F)=C(C%12=O)C=C%13F)=C(C#N)/C#N)S%11)=C9OCCCCCCCC)(C%14=CC=C(CCCCCC)C=C%14)C%15=CC=C(CCCCCC)C=C%15)C%10=C8,1808.42,PBDB-T,5.33,3.53,1.8,CC(SC1=C2C3=CC=C(CC(CC)CCCC)S3)=CC1=C(C4=CC=C(CC(CC)CCCC)S4)C5=C2C=C(S5)C6=CC=C(C7=C8C(C(C9=C(CC(CC)CCCC)SC(CC(CC)CCCC)=C9C8=O)=O)=C(C%10=CC=C(C)S%10)S7)S6,117,58.5,2,1,1.2,CB/CF,DIO,NA,110,,Adv. Energy Mater.,10.1002/aenm.201801618
163,65,2018,10.67,10.67,18.55,0.692,0.831,IDTO-Se-4F,5.48,3.9,1.58,CCCCCCC(C=C1)=CC=C1C(C2=C3SC(C4=CC=C(/C=C5C(C(C=C(F)C(F)=C6)=C6C\5=C(C#N)\C#N)=O)[Se]4)=C2OCCCCCCCC)(C7=CC=C(CCCCCC)C=C7)C8=C3C=C(C(C9=C%10SC(C%11=CC=C(/C=C%12/C(C(C=C%13F)=C(C%12=O)C=C%13F)=C(C#N)/C#N)[Se]%11)=C9OCCCCCCCC)(C%14=CC=C(CCCCCC)C=C%14)C%15=CC=C(CCCCCC)C=C%15)C%10=C8,1902.22,PBDB-T,5.33,3.53,1.8,CC(SC1=C2C3=CC=C(CC(CC)CCCC)S3)=CC1=C(C4=CC=C(CC(CC)CCCC)S4)C5=C2C=C(S5)C6=CC=C(C7=C8C(C(C9=C(CC(CC)CCCC)SC(CC(CC)CCCC)=C9C8=O)=O)=C(C%10=CC=C(C)S%10)S7)S6,117,58.5,2,1,1.1,CB/CF,DIO,NA,110,,Adv. Energy Mater.,10.1002/aenm.201801618
164,65,2018,10.21,10.21,17.21,0.694,0.856,IDTO-TT-4F,5.39,3.89,1.5,CCCCCCC(C=C1)=CC=C1C(C2=C3SC(C4=CC5=C(C=C(/C=C6C(C(C=C(F)C(F)=C7)=C7C\6=C(C#N)\C#N)=O)S5)S4)=C2OCCCCCCCC)(C8=CC=C(CCCCCC)C=C8)C9=C3C=C(C(C%10=C%11SC(C%12=CC%13=C(C=C(/C=C%14/C(C(C=C%15F)=C(C%14=O)C=C%15F)=C(C#N)/C#N)S%13)S%12)=C%10OCCCCCCCC)(C%16=CC=C(CCCCCC)C=C%16)C%17=CC=C(CCCCCC)C=C%17)C%11=C9,1920.59,PBDB-T,5.33,2.92,2.41,CC(SC1=C2C3=CC=C(CC(CC)CCCC)S3)=CC1=C(C4=CC=C(CC(CC)CCCC)S4)C5=C2C=C(S5)C6=CC=C(C7=C8C(C(C9=C(CC(CC)CCCC)SC(CC(CC)CCCC)=C9C8=O)=O)=C(C%10=CC=C(C)S%10)S7)S6,117,58.5,2,1,1.1,CB/CF,DIO,100,110,,Adv. Energy Mater.,10.1002/aenm.201801618
165,66,2015,5,5,10.51,0.58,0.78,H-Di-PDI,5.87,3.76,2.11,O=C(N(N1C(C(C=C2)=C3C4=C2C5=CC=C(C(N(C(CCCCC)CCCCC)C6=O)=O)C(C6=CC7)=C5C7=C4CC=C3C1=O)=O)C8=O)C9=CCC(C%10=C%11C=CC8=C%109)=C%12CC=C%13C%14=C%12C%11=CC=C%14C(N(C(CCCCC)CCCCC)C%13=O)=O,1091.32,PTB7,5.14,3.51,1.63,CC1=C(C(F)=C(C(OCC(CC)CCCC)=O)S2)C2=C(C3=CC4=C(OCC(CCCC)CC)C(SC(C)=C5)=C5C(OCC(CCCC)CC)=C4S3)S1,97.5,46.4,2.1,1,1,DCB,DIO/CN,NA,90,,Adv. Funct. Mater.,10.1002/adfm.201501971
166,66,2015,1.69,1.69,3.66,0.51,0.79,B-di-PDI,5.81,3.75,2.06,O=C(N(C(CCCCC)CCCCC)C1=O)C2=CCC(C3=C4C=CC1=C32)=C5C(C(C=C6C(N(C(CCCCC)CCCCC)C7=O)=O)=C8C9=C6C7=CCC9=C%10C%11=C8C=CC%12=C%11C(C(N(C(CCCCC)CCCCC)C%12=O)=O)=CC%10)C=C%13C%14=C5C4=CC=C%14C(N(C(CCCCC)CCCCC)C%13=O)=O,1399.91,PTB7,5.14,3.51,1.63,CC1=C(C(F)=C(C(OCC(CC)CCCC)=O)S2)C2=C(C3=CC4=C(OCC(CCCC)CC)C(SC(C)=C5)=C5C(OCC(CCCC)CC)=C4S3)S1,97.5,46.4,2.1,1,1,DCB,DIO/CN,NA,90,,Adv. Funct. Mater.,10.1002/adfm.201501971
167,66,2015,5.56,5.56,12.86,0.54,0.79,H-Di-PDI,5.87,3.76,2.11,O=C(N(N1C(C(C=C2)=C3C4=C2C5=CC=C(C(N(C(CCCCC)CCCCC)C6=O)=O)C(C6=CC7)=C5C7=C4CC=C3C1=O)=O)C8=O)C9=CCC(C%10=C%11C=CC8=C%109)=C%12CC=C%13C%14=C%12C%11=CC=C%14C(N(C(CCCCC)CCCCC)C%13=O)=O,1091.32,PTB7-Th,5.22,3.64,1.58,O=C(OCC(CC)CCCC)C1=C(F)C2=C(C)SC(C3=CC4=C(C(C5=CC=C(CC(CC)CCCC)S5)=C(C=C(C)S6)C6=C4C7=CC=C(CC(CC)CCCC)S7)S3)=C2S1,124,72.9,1.7,1,1,DCB,DIO/CN,NA,90,,Adv. Funct. Mater.,10.1002/adfm.201501971
168,66,2015,6.41,6.41,13.12,0.6,0.79,B-di-PDI,5.81,3.75,2.06,O=C(N(C(CCCCC)CCCCC)C1=O)C2=CCC(C3=C4C=CC1=C32)=C5C(C(C=C6C(N(C(CCCCC)CCCCC)C7=O)=O)=C8C9=C6C7=CCC9=C%10C%11=C8C=CC%12=C%11C(C(N(C(CCCCC)CCCCC)C%12=O)=O)=CC%10)C=C%13C%14=C5C4=CC=C%14C(N(C(CCCCC)CCCCC)C%13=O)=O,1399.91,PTB7-Th,5.22,3.64,1.58,O=C(OCC(CC)CCCC)C1=C(F)C2=C(C)SC(C3=CC4=C(C(C5=CC=C(CC(CC)CCCC)S5)=C(C=C(C)S6)C6=C4C7=CC=C(CC(CC)CCCC)S7)S3)=C2S1,124,72.9,1.7,1,1,DCB,DIO/CN,NA,90,,Adv. Funct. Mater.,10.1002/adfm.201501971
169,67,2015,3.63,3.63,6.96,0.475,1.1,SF-DPPEH,5.26,3.6,1.66,O=C1C(C2=C(C3=CC=CS3)N1CC(CC)CCCC)=C(C(S4)=CC=C4C5=CC6=C(C7C(C6(C8C9C=CC(C%10=CC=C(C%11=C%12C(C(N%11CC(CC)CCCC)=O)=C(C%13=CC=CS%13)N(CC(CC)CCCC)C%12=O)S%10)=C8)C%14=C9C=CC(C%15=CC=C(C%16=C%17C(C(N%16CC(CC)CCCC)=O)=C(C%18=CC=CS%18)N(CC(CC)CCCC)C%17=O)S%15)=C%14)C=C(C%19=CC=C(C%20=C%21C(C(N%20CC(CC)CCCC)=O)=C(C%22=CC=CS%22)N(CC(CC)CCCC)C%21=O)S%19)C=C7)C=C5)N(CC(CC)CCCC)C2=O,2411.5,P3HT,4.94,3,1.94,CC1=CC(CCCCCC)=C(C)S1,21.1,11.6,1.82,1,1,CF,NA,120,,,Adv. Funct. Mater.,10.1002/adfm.201502413
170,67,2015,1.87,1.87,5.21,0.409,0.88,SF-DPPC8,5.24,3.55,1.69,O=C1C(C2=C(C3=CC=CS3)N1CCCCCCCC)=C(C(S4)=CC=C4C5=CC6=C(C7C(C6(C8C9C=CC(C%10=CC=C(C%11=C%12C(C(N%11CCCCCCCC)=O)=C(C%13=CC=CS%13)N(CCCCCCCC)C%12=O)S%10)=C8)C%14=C9C=CC(C%15=CC=C(C%16=C%17C(C(N%16CCCCCCCC)=O)=C(C%18=CC=CS%18)N(CCCCCCCC)C%17=O)S%15)=C%14)C=C(C%19=CC=C(C%20=C%21C(C(N%20CCCCCCCC)=O)=C(C%22=CC=CS%22)N(CCCCCCCC)C%21=O)S%19)C=C7)C=C5)N(CCCCCCCC)C2=O,2411.5,P3HT,4.94,3,1.94,CC1=CC(CCCCCC)=C(C)S1,21.1,11.6,1.82,1,1,CF,NA,100,,,Adv. Funct. Mater.,10.1002/adfm.201502413
171,67,2015,1.42,1.42,3.88,0.401,0.91,SF-DPPC12,5.23,3.57,1.66,O=C1C(C2=C(C3=CC=CS3)N1CCCCCCCCCCCC)=C(C(S4)=CC=C4C5=CC6=C(C7C(C6(C8C9C=CC(C%10=CC=C(C%11=C%12C(C(N%11CCCCCCCCCCCC)=O)=C(C%13=CC=CS%13)N(CCCCCCCCCCCC)C%12=O)S%10)=C8)C%14=C9C=CC(C%15=CC=C(C%16=C%17C(C(N%16CCCCCCCCCCCC)=O)=C(C%18=CC=CS%18)N(CCCCCCCCCCCC)C%17=O)S%15)=C%14)C=C(C%19=CC=C(C%20=C%21C(C(N%20CCCCCCCCCCCC)=O)=C(C%22=CC=CS%22)N(CCCCCCCCCCCC)C%21=O)S%19)C=C7)C=C5)N(CCCCCCCCCCCC)C2=O,2860.36,P3HT,4.94,3,1.94,CC1=CC(CCCCCC)=C(C)S1,21.1,11.6,1.82,1,1,CF,NA,100,,,Adv. Funct. Mater.,10.1002/adfm.201502413
172,67,2015,0.76,0.76,2.37,0.426,0.75,SF-A-DPPEH,5.3,3.58,1.72,O=C1C(C2=C(C3=CC=CS3)N1CC(CC)CCCC)=C(C4=CC=C(C#CC5=CC6=C(C7C(C6(C8C9C=CC(C#CC%10=CC=C(C%11=C%12C(C(N%11CC(CC)CCCC)=O)=C(C%13=CC=CS%13)N(CC(CC)CCCC)C%12=O)S%10)=C8)C%14=C9C=CC(C#CC%15=CC=C(C%16=C%17C(C(N%16CC(CC)CCCC)=O)=C(C%18=CC=CS%18)N(CC(CC)CCCC)C%17=O)S%15)=C%14)C=C(C#CC%19=CC=C(C%20=C%21C(C(N%20CC(CC)CCCC)=O)=C(C%22=CC=CS%22)N(CC(CC)CCCC)C%21=O)S%19)C=C7)C=C5)S4)N(CC(CC)CCCC)C2=O,2507.59,P3HT,4.94,3,1.94,CC1=CC(CCCCCC)=C(C)S1,21.1,11.6,1.82,1,1,CF,NA,140,,,Adv. Funct. Mater.,10.1002/adfm.201502413
173,67,2015,0.28,0.28,1.21,0.289,0.79,SF-A-DPPC8,5.29,3.56,1.73,O=C1C(C2=C(C3=CC=CS3)N1CCCCCCCC)=C(C4=CC=C(C#CC5=CC6=C(C7C(C6(C8C9C=CC(C#CC%10=CC=C(C%11=C%12C(C(N%11CCCCCCCC)=O)=C(C%13=CC=CS%13)N(CCCCCCCC)C%12=O)S%10)=C8)C%14=C9C=CC(C#CC%15=CC=C(C%16=C%17C(C(N%16CCCCCCCC)=O)=C(C%18=CC=CS%18)N(CCCCCCCC)C%17=O)S%15)=C%14)C=C(C#CC%19=CC=C(C%20=C%21C(C(N%20CCCCCCCC)=O)=C(C%22=CC=CS%22)N(CCCCCCCC)C%21=O)S%19)C=C7)C=C5)S4)N(CCCCCCCC)C2=O,2507.59,P3HT,4.94,3,1.94,CC1=CC(CCCCCC)=C(C)S1,21.1,11.6,1.82,1,1,CF,NA,NA,,,Adv. Funct. Mater.,10.1002/adfm.201502413
174,67,2015,0.45,0.45,1.96,0.331,0.7,SF-A-DPPC12,5.29,3.57,1.72,O=C1C(C2=C(C3=CC=CS3)N1CCCCCCCCCCCC)=C(C4=CC=C(C#CC5=CC6=C(C7C(C6(C8C9C=CC(C#CC%10=CC=C(C%11=C%12C(C(N%11CCCCCCCCCCCC)=O)=C(C%13=CC=CS%13)N(CCCCCCCCCCCC)C%12=O)S%10)=C8)C%14=C9C=CC(C#CC%15=CC=C(C%16=C%17C(C(N%16CCCCCCCCCCCC)=O)=C(C%18=CC=CS%18)N(CCCCCCCCCCCC)C%17=O)S%15)=C%14)C=C(C#CC%19=CC=C(C%20=C%21C(C(N%20CCCCCCCCCCCC)=O)=C(C%22=CC=CS%22)N(CCCCCCCCCCCC)C%21=O)S%19)C=C7)C=C5)S4)N(CCCCCCCCCCCC)C2=O,2956.45,P3HT,4.94,3,1.94,CC1=CC(CCCCCC)=C(C)S1,21.1,11.6,1.82,1,1,CF,NA,NA,,,Adv. Funct. Mater.,10.1002/adfm.201502413
175,68,2016,2.48,2.45,5.31,0.52,0.9,NTz-Np,6.01,3.6,2.41,CCCCCCC1=C(C#CC2=CC=C(C(N3C4=CC=C(C(C=CC=C5)=C5C6(CCCC)CCCC)C6=C4)=O)C7=C2C=CC=C7C3=O)SC(C8=CC9=C(C=C(C%10=CC(CCCCCC)=C(C#CC%11=CC=C(C(N%12C%13=CC=C(C(C=CC=C%14)=C%14C%15(CCCC)CCCC)C%15=C%13)=O)C%16=C%11C=CC=C%16C%12=O)S%10)C%17=NSN=C9%17)C%18=NSN=C8%18)=C1,1568.1,P3HT,5,3.1,1.9,CC1=CC(CCCCCC)=C(C)S1,21.1,11.6,1.82,1,1,CB,NA,140,130,,Adv. Funct. Mater.,10.1002/adfm.201504153
176,68,2016,2.81,2.71,5.18,0.6,0.9,BTz-Np,5.95,3.44,2.51,CCCCCCC1=C(C#CC2=CC=C(C(N3C4=CC=C(C(C=CC=C5)=C5C6(CCCC)CCCC)C6=C4)=O)C7=C2C=CC=C7C3=O)SC(C8=CC=C(C9=CC(CCCCCC)=C(C#CC%10=CC=C(C(N%11C%12=CC=C(C(C=CC=C%13)=C%13C%14(CCCC)CCCC)C%14=C%12)=O)C%15=C%10C=CC=C%15C%11=O)S9)C%16=NSN=C8%16)=C1,1459.98,P3HT,5,3.1,1.9,CC1=CC(CCCCCC)=C(C)S1,21.1,11.6,1.82,1,1,CB/DCB,NA,140,121,,Adv. Funct. Mater.,10.1002/adfm.201504153
177,69,2017,6,5.7,7,0.635,1.3,PMI-F-PMI (PDI),5.5,3.42,2.08,O=C1N(C2=C(C(C)C)C=CC=C2C(C)C)C(C3=CC=C4C5=C3C1=CC=C5C6=CC=CC7=C(C8=CC(C(CCCCCCCC)(CCCCCCCC)C9C%10C=CC(C(C=C%11)=C%12C%13=C%11C%14=CC=C(C(N%15C%16=C(C(C)C)C=CC=C%16C(C)C)=O)C%17=C%14C(C%13=CC=C%12)=CC=C%17C%15=O)=C9)=C%10C=C8)C=CC4=C67)=O,1351.83,PTZ1,5.31,3.34,1.97,CC(SC1=C2C3=CC=C(CC(CC)CCCC)S3)=CC1=C(C4=CC=C(CC(CC)CCCC)S4)C5=C2C=C(S5)C6=C(CC(CC)CCCC)C=C(C7=NC8=C(N=C(C9=CC(CC(CC)CCCC)=C(C)S9)S8)S7)S6,46.74,24.6,1.9,2,1,DCB,NMP/DPE,NA,93,,Adv. Funct. Mater.,10.1002/adfm.201603892
178,70,2017,9.11,8.86,16.1,0.646,0.87,ITIC,5.48,3.83,1.65,CCCCCCC(C=C1)=CC=C1C2(C3=CC=C(CCCCCC)C=C3)C4=CC5=C(C(C6=C5SC7=C6SC(/C=C8C(C(C=CC=C9)=C9C\8=C(C#N)\C#N)=O)=C7)(C%10=CC=C(CCCCCC)C=C%10)C%11=CC=C(CCCCCC)C=C%11)C=C4C%12=C2C(SC(/C=C%13C(C(C=CC=C%14)=C%14C\%13=C(C#N)/C#N)=O)=C%15)=C%15S%12,1427.96,PBDT-NQx,5.24,3.42,1.82,CC1=CC2=C(C(C3=CC=C(CC(CCCC)CCCCCC)S3)=C4C=C(SC4=C2C5=CC=C(CC(CCCC)CCCCCC)S5)C6=CC=C(C7=C(N=C(C8=CC=C(CCCCCCCC)S8)C(C9=CC=C(CCCCCCCC)S9)=N%10)C%10=C(C=C(C%11=CC=C(C)S%11)C%12=C%13N=C(C%14=CC=C(CCCCCCCC)S%14)C(C%15=CC=C(CCCCCCCC)S%15)=N%12)C%13=C7)S6)S1,53.2,38,1.4,1,0.8,CB,DIO,NA,110,,Adv. Funct. Mater.,10.1002/adfm.201701491
179,70,2017,11.47,11.02,17.86,0.698,0.92,ITIC,5.48,3.83,1.65,CCCCCCC(C=C1)=CC=C1C2(C3=CC=C(CCCCCC)C=C3)C4=CC5=C(C(C6=C5SC7=C6SC(/C=C8C(C(C=CC=C9)=C9C\8=C(C#N)\C#N)=O)=C7)(C%10=CC=C(CCCCCC)C=C%10)C%11=CC=C(CCCCCC)C=C%11)C=C4C%12=C2C(SC(/C=C%13C(C(C=CC=C%14)=C%14C\%13=C(C#N)/C#N)=O)=C%15)=C%15S%12,1427.96,PBDTS-NQx,5.31,3.46,1.85,CC1=CC2=C(C(C3=CC=C(SCC(CCCC)CCCCCC)S3)=C4C=C(SC4=C2C5=CC=C(SCC(CCCC)CCCCCC)S5)C6=CC=C(C7=C(N=C(C8=CC=C(CCCCCCCC)S8)C(C9=CC=C(CCCCCCCC)S9)=N%10)C%10=C(C=C(C%11=CC=C(C)S%11)C%12=C%13N=C(C%14=CC=C(CCCCCCCC)S%14)C(C%15=CC=C(CCCCCCCC)S%15)=N%12)C%13=C7)S6)S1,68,40,1.7,1,0.8,CB,DIO,NA,109,,Adv. Funct. Mater.,10.1002/adfm.201701491
180,71,2018,7.04,6.74,12.62,0.5,1.11,FBR,5.83,3.7,2.13,S=C(S/1)N(CC)C(C1=C/C2=CC=C(C3=CC(C4(CCCCCCCC)CCCCCCCC)=C(C=C3)C(C4=C5)=CC=C5C(C6=NSN=C67)=CC=C7/C=C8SC(N(C/8=O)CC)=S)C9=NSN=C29)=O,1001.43,PffBT4T-2OD,5.34,3.69,1.65,CC1=C(C=C(S1)C2=C(C(F)=C(C3=NSN=C32)C4=CC(CC(CCCCCCCC)CCCCCCCCCC)=C(S4)C5=CC=C(S5)C6=CC=C(S6)C)F)CC(CCCCCCCCCC)CCCCCCCC,140,70,2,1,1.4,CB/DCB,NA,NA,,,Adv. Funct. Mater.,10.1002/adfm.201704389
181,72,2018,0.26,0.26,0.84,0.2388,1.29,BTA2,5.43,3.43,2,O=C(/C(S1)=C/C(C2=NN(CCCCCCCC)N=C32)=CC=C3C(S4)=CC5=C4C6=CC(C(C7=CC=C(CCCCCC)C=C7)(C8=CC=C(CCCCCC)C=C8)C9=C%10SC(C%11=CC=C(/C=C%12SC(N(CC)C\%12=O)=O)C%13=NN(CCCCCCCC)N=C%11%13)=C9)=C%10C=C6C5(C%14=CC=C(CCCCCC)C=C%14)C%15=CC=C(CCCCCC)C=C%15)N(CC)C1=O,1676.41,J61,5.32,3.38,1.94,CC1=CC(C(S1)=C2C3=CC=C(SCCCCCCCCCCCC)S3)=C(C4=C2C=C(C5=CC=C(C6=C(F)C(F)=C(C7=CC=C(C)S7)C8=NN(CC(CCCCCC)CCCCCCCC)N=C68)S5)S4)C9=CC=C(SCCCCCCCCCCCC)S9,140,70,2,1,1,CF,NA,NA,100,,Adv. Funct. Mater.,10.1002/adfm.201704507
182,72,2018,3.02,2.98,5.21,0.4671,1.24,BTA1,5.46,3.59,1.87,O=C(/C(S1)=C/C(C2=NN(CCCCCCCC)N=C32)=CC=C3C(S4)=CC5=C4C6=CC(C(C7=CC=C(CCCCCC)C=C7)(C8=CC=C(CCCCCC)C=C8)C9=C%10SC(C%11=CC=C(/C=C%12SC(N(CC)C\%12=O)=S)C%13=NN(CCCCCCCC)N=C%11%13)=C9)=C%10C=C6C5(C%14=CC=C(CCCCCC)C=C%14)C%15=CC=C(CCCCCC)C=C%15)N(CC)C1=S,1708.53,J61,5.32,3.38,1.94,CC1=CC(C(S1)=C2C3=CC=C(SCCCCCCCCCCCC)S3)=C(C4=C2C=C(C5=CC=C(C6=C(F)C(F)=C(C7=CC=C(C)S7)C8=NN(CC(CCCCCC)CCCCCCCC)N=C68)S5)S4)C9=CC=C(SCCCCCCCCCCCC)S9,140,70,2,1,1,CF,NA,NA,100,,Adv. Funct. Mater.,10.1002/adfm.201704507
183,72,2018,8.25,8.03,10.84,0.6617,1.15,BTA3,5.49,3.73,1.76,O=C(/C(S/1)=C/C(C2=NN(CCCCCCCC)N=C32)=CC=C3C(S4)=CC5=C4C6=CC(C(C7=CC=C(CCCCCC)C=C7)(C8=CC=C(CCCCCC)C=C8)C9=C%10SC(C%11=CC=C(/C=C%12S/C(N(CC)C\%12=O)=C(C#N)/C#N)C%13=NN(CCCCCCCC)N=C%11%13)=C9)=C%10C=C6C5(C%14=CC=C(CCCCCC)C=C%14)C%15=CC=C(CCCCCC)C=C%15)N(CC)C1=C([N+]#[C-])\C#N,1772.51,J61,5.32,3.38,1.94,CC1=CC(C(S1)=C2C3=CC=C(SCCCCCCCCCCCC)S3)=C(C4=C2C=C(C5=CC=C(C6=C(F)C(F)=C(C7=CC=C(C)S7)C8=NN(CC(CCCCCC)CCCCCCCC)N=C68)S5)S4)C9=CC=C(SCCCCCCCCCCCC)S9,140,70,2,1,1,CF,NA,NA,100,,Adv. Funct. Mater.,10.1002/adfm.201704507
184,73,2018,11.61,11.39,16.41,0.73,0.97,ITC6-IC,5.73,3.92,1.81,CCCCCCC(C=C1)=CC=C1C2(C3=CC=C(CCCCCC)C=C3)C4=CC5=C(C(C6=C5SC7=C6SC(/C=C8C(C(C=CC=C9)=C9C\8=C(C#N)\C#N)=O)=C7CCCCCC)(C%10=CC=C(CCCCCC)C=C%10)C%11=CC=C(CCCCCC)C=C%11)C=C4C%12=C2C(SC(/C=C%13C(C(C=CC=C%14)=C%14C\%13=C(C#N)/C#N)=O)=C%15CCCCCC)=C%15S%12,1596.28,PBDB-T,5.33,3.53,1.8,CC(SC1=C2C3=CC=C(CC(CC)CCCC)S3)=CC1=C(C4=CC=C(CC(CC)CCCC)S4)C5=C2C=C(S5)C6=CC=C(C7=C8C(C(C9=C(CC(CC)CCCC)SC(CC(CC)CCCC)=C9C8=O)=O)=C(C%10=CC=C(C)S%10)S7)S6,117,58.5,2,1,1,CB,NA,120,110,,Adv. Funct. Mater.,10.1002/adfm.201705095
185,73,2018,10.21,10.06,16.27,0.69,0.91,ITIC,5.68,4.01,1.67,CCCCCCC(C=C1)=CC=C1C2(C3=CC=C(CCCCCC)C=C3)C4=CC5=C(C(C6=C5SC7=C6SC(/C=C8C(C(C=CC=C9)=C9C\8=C(C#N)\C#N)=O)=C7)(C%10=CC=C(CCCCCC)C=C%10)C%11=CC=C(CCCCCC)C=C%11)C=C4C%12=C2C(SC(/C=C%13C(C(C=CC=C%14)=C%14C\%13=C(C#N)/C#N)=O)=C%15)=C%15S%12,1427.96,PBDB-T,5.33,3.53,1.8,CC(SC1=C2C3=CC=C(CC(CC)CCCC)S3)=CC1=C(C4=CC=C(CC(CC)CCCC)S4)C5=C2C=C(S5)C6=CC=C(C7=C8C(C(C9=C(CC(CC)CCCC)SC(CC(CC)CCCC)=C9C8=O)=O)=C(C%10=CC=C(C)S%10)S7)S6,117,58.5,2,1,1,CB,NA,NA,110,,Adv. Funct. Mater.,10.1002/adfm.201705095
186,74,2018,10.54,10.31,16.55,0.7073,0.896,ITIC,5.68,4.01,1.67,CCCCCCC(C=C1)=CC=C1C2(C3=CC=C(CCCCCC)C=C3)C4=CC5=C(C(C6=C5SC7=C6SC(/C=C8C(C(C=CC=C9)=C9C\8=C(C#N)\C#N)=O)=C7)(C%10=CC=C(CCCCCC)C=C%10)C%11=CC=C(CCCCCC)C=C%11)C=C4C%12=C2C(SC(/C=C%13C(C(C=CC=C%14)=C%14C\%13=C(C#N)/C#N)=O)=C%15)=C%15S%12,1427.96,PBDB-T,5.33,3.53,1.8,CC(SC1=C2C3=CC=C(CC(CC)CCCC)S3)=CC1=C(C4=CC=C(CC(CC)CCCC)S4)C5=C2C=C(S5)C6=CC=C(C7=C8C(C(C9=C(CC(CC)CCCC)SC(CC(CC)CCCC)=C9C8=O)=O)=C(C%10=CC=C(C)S%10)S7)S6,117,58.5,2,1,1,CB,DIO,NA,110,,Adv. Funct. Mater.,10.1002/adfm.201705659
187,74,2018,11.52,11.31,16.37,0.7406,0.95,IT-M,5.58,3.98,1.6,CCCCCCC(C=C1)=CC=C1C2(C3=CC=C(CCCCCC)C=C3)C4=CC5=C(C(C6=C5SC7=C6SC(/C=C8C(C(C=CC(C)=C9)=C9C\8=C(C#N)\C#N)=O)=C7)(C%10=CC=C(CCCCCC)C=C%10)C%11=CC=C(CCCCCC)C=C%11)C=C4C%12=C2C(SC(/C=C%13C(C(C=CC(C)=C%14)=C%14C\%13=C(C#N)/C#N)=O)=C%15)=C%15S%12,1456.01,PBDB-T,5.33,3.53,1.8,CC(SC1=C2C3=CC=C(CC(CC)CCCC)S3)=CC1=C(C4=CC=C(CC(CC)CCCC)S4)C5=C2C=C(S5)C6=CC=C(C7=C8C(C(C9=C(CC(CC)CCCC)SC(CC(CC)CCCC)=C9C8=O)=O)=C(C%10=CC=C(C)S%10)S7)S6,117,58.5,2,1,1,CB,DIO,NA,110,,Adv. Funct. Mater.,10.1002/adfm.201705659