ID,Ref,year,PCE_max(%),PCE_ave(%),Jsc(mA/cm2),FF,Voc(V),Nickname(n),-HOMO_n(eV),-LUMO_n(eV),Eg_n(eV),n(SMILES),M (g/mol),Nickname(p),-HOMO_p(eV),-LUMO_p(eV),Eg_p(eV),p(SMILES),Mw (kg/mol),Mn(kg/mol),PDI,p/n ratio (p),p/n ratio (n),Solvent,Additive,TA (oC),thick (nm),,Journal,DOI
710,320,2019,11.3,11.1,19.7,0.62,0.92,ITIC-F,5.69,4.14,1.55,CCCCCCC(C=C1)=CC=C1C2(C3=CC=C(CCCCCC)C=C3)C4=CC5=C(C(C6=C5SC7=C6SC(/C=C8C(C(C=CC(F)=C9)=C9C\8=C(C#N)\C#N)=O)=C7)(C%10=CC=C(CCCCCC)C=C%10)C%11=CC=C(CCCCCC)C=C%11)C=C4C%12=C2C(SC(/C=C%13C(C(C=CC(F)=C%14)=C%14C\%13=C(C#N)/C#N)=O)=C%15)=C%15S%12,1463.94,PBB-T,5.4,3.3,2.1,CC(SC1=C2C3=CC=C(CC(CC)CCCC)S3)=CC1=C(C4=CC=C(CC(CC)CCCC)S4)C5=C2C=C(C6=C(CC(CCCCCCCC)CCCC)C=C(C(SC7=C8)=NC7=CC9=C8N=C(C%10=CC(CC(CCCC)CCCCCCCC)=C(C)S%10)S9)S6)S5,269.64,107,2.52,1,1.2,CB,NA,NA,110,,,
711,321,2019,10.7,10.6,18.9,0.666,0.85,R10-4Cl,5.35,3.91,1.44,O=C(C(C=C(Cl)C(Cl)=C1)=C1C/2=C(C#N)/C#N)C2=C/C3=CC(C4(C(C=C5)=CC=C5CCCCCC)C(C=C6)=CC=C6CCCCCC)=C(C7=C4C=C8C(SC9=C%10SC(C%11=CC%12=C%13C(SC(/C=C%14C(C(C=C(Cl)C(Cl)=C%15)=C%15C\%14=C(C#N)\C#N)=O)=C%16)=C%16C(C(C=C%17)=CC=C%17CCCCCC)%12C(C=C%18)=CC=C%18CCCCCC)=C9C(C(C=C%19)=CC=C%19CCCCCC)(C%11=C%13)C(C=C%20)=CC=C%20CCCCCC)=C%10C(C(C=C%21)=CC=C%21CCCCCC)(C8=C7)C(C=C%22)=CC=C%22CCCCCC)S3,2332.92,PBDB-T,5.21,3.41,1.8,CC(SC1=C2C3=CC=C(CC(CC)CCCC)S3)=CC1=C(C4=CC=C(CC(CC)CCCC)S4)C5=C2C=C(S5)C6=CC=C(C7=C8C(C(C9=C(CC(CC)CCCC)SC(CC(CC)CCCC)=C9C8=O)=O)=C(C%10=CC=C(C)S%10)S7)S6,9.1546,5.03,1.82,1,1,CB,DIO,NA,,,,
712,321,2019,9.3,9.2,18.5,0.669,0.75,R12-4Cl,5.26,3.95,1.31,O=C(C(C=C(Cl)C(Cl)=C1)=C1C/2=C(C#N)/C#N)C2=C/C(S3)=CC4=C3C(C5(C(C=C6)=CC=C6CCCCCC)C(C=C7)=CC=C7CCCCCC)=C(C8=C5C=C9C(SC%10=C%11SC(C%12=CC%13=C%14C(SC%15=C%16SC(/C=C%17C(C(C=C(Cl)C(Cl)=C%18)=C%18C\%17=C(C#N)\C#N)=O)=C%15)=C%16C(C(C=C%19)=CC=C%19CCCCCC)%13C(C=C%20)=CC=C%20CCCCCC)=C%10C(C(C=C%21)=CC=C%21CCCCCC)(C%12=C%14)C(C=C%22)=CC=C%22CCCCCC)=C%11C(C(C=C%23)=CC=C%23CCCCCC)(C9=C8)C(C=C%24)=CC=C%24CCCCCC)S4,2445.09,PBDB-T,5.21,3.41,1.8,CC(SC1=C2C3=CC=C(CC(CC)CCCC)S3)=CC1=C(C4=CC=C(CC(CC)CCCC)S4)C5=C2C=C(S5)C6=CC=C(C7=C8C(C(C9=C(CC(CC)CCCC)SC(CC(CC)CCCC)=C9C8=O)=O)=C(C%10=CC=C(C)S%10)S7)S6,9.1546,5.03,1.82,1,1,CB,DIO,NA,,,,
713,322,2019,9.41,9.18,14.62,0.6034,1.07,BTA3,5.49,3.73,1.76,O=C(/C(S/1)=C/C(C2=NN(CCCCCCCC)N=C32)=CC=C3C(S4)=CC5=C4C6=CC(C(C7=CC=C(CCCCCC)C=C7)(C8=CC=C(CCCCCC)C=C8)C9=C%10SC(C%11=CC=C(/C=C%12S/C(N(CC)C\%12=O)=C(C#N)/C#N)C%13=NN(CCCCCCCC)N=C%11%13)=C9)=C%10C=C6C5(C%14=CC=C(CCCCCC)C=C%14)C%15=CC=C(CCCCCC)C=C%15)N(CC)C1=C([N+]#[C-])\C#N,1772.51,J52,5.13,3.22,1.91,CC1=CC(C(S1)=C2C3=CC=C(CC(CC)CCCC)S3)=C(C4=C2C=C(C5=CC=C(C6=C(F)C(F)=C(C7=CC=C(C)S7)C8=NN(CC(CCCCCC)CCCCCCCC)N=C68)S5)S4)C9=CC=C(CC(CC)CCCC)S9,170,53.125,3.2,1,1,CF,NA,150,,,,
714,322,2019,10.5,10.35,13.16,0.6662,1.24,BTA3,5.49,3.73,1.76,O=C(/C(S/1)=C/C(C2=NN(CCCCCCCC)N=C32)=CC=C3C(S4)=CC5=C4C6=CC(C(C7=CC=C(CCCCCC)C=C7)(C8=CC=C(CCCCCC)C=C8)C9=C%10SC(C%11=CC=C(/C=C%12S/C(N(CC)C\%12=O)=C(C#N)/C#N)C%13=NN(CCCCCCCC)N=C%11%13)=C9)=C%10C=C6C5(C%14=CC=C(CCCCCC)C=C%14)C%15=CC=C(CCCCCC)C=C%15)N(CC)C1=C([N+]#[C-])\C#N,1772.51,J52-Cl,5.39,3.45,1.94,CC1=CC(C(S1)=C2C3=CC(Cl)=C(CC(CC)CCCC)S3)=C(C4=C2C=C(C5=CC=C(C6=C(F)C(F)=C(C7=CC=C(C)S7)C8=NN(CC(CCCCCCCC)CCCCCC)N=C68)S5)S4)C9=CC(Cl)=C(CC(CC)CCCC)S9,56.11,18.1,3.1,1,1,CF,NA,150,,,,
715,323,2019,13.72,13.48,22.88,0.691,0.868,IE4F-S,5.54,3.89,1.65,O=C1C2=C(C(/C1=C/C3=CSC(C4=CC(C(C(C=C5)=CC=C5CCCCCC)(C6=C7)C(C=C8)=CC=C8CCCCCC)=C(C6=CC9=C7C(SC(C%10=C(C(/C=C%11C(C(C=C(F)C(F)=C%12)=C%12C\%11=C(C#N)\C#N)=O)=CS%10)SCC(CCCC)CC)=C%13)=C%13C(C(C=C%14)=CC=C%14CCCCCC)9C(C=C%15)=CC=C%15CCCCCC)S4)=C3SCC(CC)CCCC)=C(C#N)\C#N)C=C(F)C(F)=C2,1840.55,PBDB-T,5.33,2.92,2.41,CC(SC1=C2C3=CC=C(CC(CC)CCCC)S3)=CC1=C(C4=CC=C(CC(CC)CCCC)S4)C5=C2C=C(S5)C6=CC=C(C7=C8C(C(C9=C(CC(CC)CCCC)SC(CC(CC)CCCC)=C9C8=O)=O)=C(C%10=CC=C(C)S%10)S7)S6,117,58.5,2,1,1,CB,NA,160,,,,
716,323,2019,12.2,11.98,19.67,0.623,0.996,IE4F-S,5.54,3.89,1.65,O=C1C2=C(C(/C1=C/C3=CSC(C4=CC(C(C(C=C5)=CC=C5CCCCCC)(C6=C7)C(C=C8)=CC=C8CCCCCC)=C(C6=CC9=C7C(SC(C%10=C(C(/C=C%11C(C(C=C(F)C(F)=C%12)=C%12C\%11=C(C#N)\C#N)=O)=CS%10)SCC(CCCC)CC)=C%13)=C%13C(C(C=C%14)=CC=C%14CCCCCC)9C(C=C%15)=CC=C%15CCCCCC)S4)=C3SCC(CC)CCCC)=C(C#N)\C#N)C=C(F)C(F)=C2,1840.55,PTQ10,5.54,2.98,2.56,FC1=C(C2=CC=C(C)S2)C3=NC(OCC(CCCCCC)CCCCCCCC)=CN=C3C(C)=C1F,82.11,39.1,2.1,1,1.5,CB,NA,140,,,,
717,324,2019,8.02,7.62,14.8,0.642,0.805,ITIC-Th,5.81,4.01,1.8,O=C(C(C=CC=C1)=C1C/2=C(C#N)\C#N)C2=C/C3=CC(S4)=C(S3)C5=C4C6=CC(C(C7=C8SC9=C7SC(/C=C%10C(C(C=CC=C%11)=C%11C\%10=C(C#N)\C#N)=O)=C9)(C%12=CC=C(CCCCCC)S%12)C%13=CC=C(CCCCCC)S%13)=C8C=C6C(C%14=CSC(CCCCCC)=C%14)5C%15=CC=C(CCCCCC)S%15,1452.04,PBDTT-FTTE,5.44,3.82,1.62,O=C(C1=C(F)C2=C(SC(C3=CC4=C(S3)C(C5=CC=C(S5)CC(CCCC)CC)=C6C=C(SC6=C4C7=CC=C(S7)CC(CCCC)CC)C)=C2S1)C)OCC(CC)CCCC,53.41,24.5,2.18,1,1.3,DCB,NA,NA,,,,
718,324,2019,7.42,7.26,15.6,0.594,0.785,ITIC-Th,5.81,4.01,1.8,O=C(C(C=CC=C1)=C1C/2=C(C#N)\C#N)C2=C/C3=CC(S4)=C(S3)C5=C4C6=CC(C(C7=C8SC9=C7SC(/C=C%10C(C(C=CC=C%11)=C%11C\%10=C(C#N)\C#N)=O)=C9)(C%12=CC=C(CCCCCC)S%12)C%13=CC=C(CCCCCC)S%13)=C8C=C6C(C%14=CSC(CCCCCC)=C%14)5C%15=CC=C(CCCCCC)S%15,1452.04,PBDTSe-FTTE,5.47,3.85,1.62,O=C(C1=C(F)C2=C(SC(C3=CC4=C(S3)C(C5=CC=C([Se]5)CC(CCCC)CC)=C6C=C(SC6=C4C7=CC=C([Se]7)CC(CCCC)CC)C)=C2S1)C)OCC(CC)CCCC,245.228,40.4,6.07,1,1.3,DCB,NA,NA,,,,
719,324,2019,5.95,5.57,12.1,0.534,0.86,ITIC-Th,5.81,4.01,1.8,O=C(C(C=CC=C1)=C1C/2=C(C#N)\C#N)C2=C/C3=CC(S4)=C(S3)C5=C4C6=CC(C(C7=C8SC9=C7SC(/C=C%10C(C(C=CC=C%11)=C%11C\%10=C(C#N)\C#N)=O)=C9)(C%12=CC=C(CCCCCC)S%12)C%13=CC=C(CCCCCC)S%13)=C8C=C6C(C%14=CSC(CCCCCC)=C%14)5C%15=CC=C(CCCCCC)S%15,1452.04,PBDTTS-FTTE,5.49,3.9,1.59,O=C(C1=C(F)C2=C(SC(C3=CC4=C(S3)C(C5=CC(F)=C(CSC(CCCC)CC)S5)=C6C=C(SC6=C4C7=CC(F)=C(CSC(CCCC)CC)S7)C)=C2S1)C)OCC(CC)CCCC,30.976,17.6,1.76,1,1.3,DCB,NA,NA,,,,
720,324,2019,7.9,7.44,13.1,0.571,0.995,ITIC-Th,5.81,4.01,1.8,O=C(C(C=CC=C1)=C1C/2=C(C#N)\C#N)C2=C/C3=CC(S4)=C(S3)C5=C4C6=CC(C(C7=C8SC9=C7SC(/C=C%10C(C(C=CC=C%11)=C%11C\%10=C(C#N)\C#N)=O)=C9)(C%12=CC=C(CCCCCC)S%12)C%13=CC=C(CCCCCC)S%13)=C8C=C6C(C%14=CSC(CCCCCC)=C%14)5C%15=CC=C(CCCCCC)S%15,1452.04,PBDTTF-FTTE,5.65,4,1.65,O=C(C1=C(F)C2=C(SC(C3=CC4=C(S3)C(C5=CC(F)=C(S5)CC(CCCC)CC)=C6C=C(SC6=C4C7=CC(F)=C(S7)CC(CCCC)CC)C)=C2S1)C)OCC(CC)CCCC,39.552,20.6,1.92,1,1.3,DCB,NA,NA,,,,
721,325,2018,10.82,10.66,16.64,0.7124,0.9,ITIC,5.61,4.02,1.59,CCCCCCC(C=C1)=CC=C1C2(C3=CC=C(CCCCCC)C=C3)C4=CC5=C(C(C6=C5SC7=C6SC(/C=C8C(C(C=CC=C9)=C9C\8=C(C#N)\C#N)=O)=C7)(C%10=CC=C(CCCCCC)C=C%10)C%11=CC=C(CCCCCC)C=C%11)C=C4C%12=C2C(SC(/C=C%13C(C(C=CC=C%14)=C%14C\%13=C(C#N)/C#N)=O)=C%15)=C%15S%12,1427.96,PBDB-T,5.21,3.41,1.8,CC(SC1=C2C3=CC=C(CC(CC)CCCC)S3)=CC1=C(C4=CC=C(CC(CC)CCCC)S4)C5=C2C=C(S5)C6=CC=C(C7=C8C(C(C9=C(CC(CC)CCCC)SC(CC(CC)CCCC)=C9C8=O)=O)=C(C%10=CC=C(C)S%10)S7)S6,117,58.5,2,1,1,CB,DIO,160,,,,
722,325,2018,11.71,11.57,17.17,0.7146,0.94,IT-M,5.58,3.98,1.6,CCCCCCC(C=C1)=CC=C1C2(C3=CC=C(CCCCCC)C=C3)C4=CC5=C(C(C6=C5SC7=C6SC(/C=C8C(C(C=CC(C)=C9)=C9C\8=C(C#N)\C#N)=O)=C7)(C%10=CC=C(CCCCCC)C=C%10)C%11=CC=C(CCCCCC)C=C%11)C=C4C%12=C2C(SC(/C=C%13C(C(C=CC(C)=C%14)=C%14C\%13=C(C#N)/C#N)=O)=C%15)=C%15S%12,1456.01,PBDB-T,5.21,3.41,1.8,CC(SC1=C2C3=CC=C(CC(CC)CCCC)S3)=CC1=C(C4=CC=C(CC(CC)CCCC)S4)C5=C2C=C(S5)C6=CC=C(C7=C8C(C(C9=C(CC(CC)CCCC)SC(CC(CC)CCCC)=C9C8=O)=O)=C(C%10=CC=C(C)S%10)S7)S6,117,58.5,2,1,1,CB,DIO,160,,,,
723,326,2019,13.72,13.36,20.27,0.739,0.915,ITC-2Cl,5.58,4.01,1.57,CCCCCCC(C=C1)=CC=C1C2(C3=CC=C(CCCCCC)C=C3)C4=CC5=C(C(C6=C5SC7=C6SC(/C=C8C(C9=C(Cl)SC=C9C\8=C(C#N)\C#N)=O)=C7)(C%10=CC=C(CCCCCC)C=C%10)C%11=CC=C(CCCCCC)C=C%11)C=C4C%12=C2C(SC(/C=C%13C(C%14=C(Cl)SC=C%14C\%13=C(C#N)/C#N)=O)=C%15)=C%15S%12,1508.88,PM7(PBDB-T-2Cl),5.51,3.57,1.94,CC(SC1=C2C3=CC(Cl)=C(CC(CC)CCCC)S3)=CC1=C(C4=CC(Cl)=C(CC(CC)CCCC)S4)C5=C2C=C(S5)C6=CC=C(C7=C8C(C(C9=C(CC(CC)CCCC)SC(CC(CC)CCCC)=C9C8=O)=O)=C(C%10=CC=C(C)S%10)S7)S6,44.88,25.5,1.76,1,1,CF,DIO,90,105,,,
724,326,2019,12.01,11.65,21.6,0.699,0.795,IXIC-4Cl,5.52,4.13,1.39,O=C(C(C=C(Cl)C(Cl)=C1)=C1C/2=C(C#N)/C#N)C2=C/C3=CC(SC4=C5C(C6=CC=C(CCCCCC)C=C6)(C7=CC=C(CCCCCC)C=C7)C8=C4SC9=C8SC%10=C9C(C%11=CC=C(CCCCCC)C=C%11)(C%12=CC=C(CCCCCC)C=C%12)C%13=C%10SC%14=C%13SC(/C=C%15C(C(C=C(Cl)C(Cl)=C%16)=C%16C\%15=C(C#N)\C#N)=O)=C%14)=C5S3,1627.83,PM7(PBDB-T-2Cl),5.51,3.57,1.94,CC(SC1=C2C3=CC(Cl)=C(CC(CC)CCCC)S3)=CC1=C(C4=CC(Cl)=C(CC(CC)CCCC)S4)C5=C2C=C(S5)C6=CC=C(C7=C8C(C(C9=C(CC(CC)CCCC)SC(CC(CC)CCCC)=C9C8=O)=O)=C(C%10=CC=C(C)S%10)S7)S6,44.88,25.5,1.76,1,1,CF,DIO,90,105,,,
725,327,2019,13.1,12.96,21.03,0.699,0.891,IT-4F,5.66,4.14,1.52,CCCCCCC(C=C1)=CC=C1C2(C3=CC=C(CCCCCC)C=C3)C4=CC5=C(C(C6=C5SC7=C6SC(/C=C8C(C(C=C(F)C(F)=C9)=C9C\8=C(C#N)\C#N)=O)=C7)(C%10=CC=C(CCCCCC)C=C%10)C%11=CC=C(CCCCCC)C=C%11)C=C4C%12=C2C(SC(/C=C%13C(C(C=C(F)C(F)=C%14)=C%14C\%13=C(C#N)/C#N)=O)=C%15)=C%15S%12,1499.92,PBN-S,5.48,3.52,1.96,CC(SC1=C2C3=CC(F)=C(CC(CC)CCCC)S3)=CC1=C(C4=CC(F)=C(CC(CC)CCCC)S4)C5=C2C=C(C6=CC=C(C7=C8C(C(C9=C(CSC(CC)CCCC)SC(CSC(CC)CCCC)=C9C8=O)=O)=C(C%10=CC=C(C)S%10)S7)S6)S5,38.232,16.2,2.36,1,1,CB,DIO,100,,,,
726,328,2019,10.45,10.13,16.92,0.657,0.94,ITIC,5.55,3.8,1.75,CCCCCCC(C=C1)=CC=C1C2(C3=CC=C(CCCCCC)C=C3)C4=CC5=C(C(C6=C5SC7=C6SC(/C=C8C(C(C=CC=C9)=C9C\8=C(C#N)\C#N)=O)=C7)(C%10=CC=C(CCCCCC)C=C%10)C%11=CC=C(CCCCCC)C=C%11)C=C4C%12=C2C(SC(/C=C%13C(C(C=CC=C%14)=C%14C\%13=C(C#N)/C#N)=O)=C%15)=C%15S%12,1427.96,PBDT-TZNT,5.39,3.3,2.09,CC(SC1=C2C3=CC=C(SCC(CC)CCCC)S3)=CC1=C(C4=CC=C(SCC(CC)CCCC)S4)C5=C2C=C(C6=CC=C(S6)C(C7=NN(CC(CCCCCC)CCCC)N=C78)=CC9=C8C=C(C%10=CC=C(C)S%10)C%11=NN(CC(CCCCCC)CCCC)N=C%119)S5,106.888,43.1,2.48,1,1,CF,DIO,100,100,,,
727,328,2019,11.31,11,18.65,0.689,0.88,IT-4F,5.7,3.99,1.71,CCCCCCC(C=C1)=CC=C1C2(C3=CC=C(CCCCCC)C=C3)C4=CC5=C(C(C6=C5SC7=C6SC(/C=C8C(C(C=C(F)C(F)=C9)=C9C\8=C(C#N)\C#N)=O)=C7)(C%10=CC=C(CCCCCC)C=C%10)C%11=CC=C(CCCCCC)C=C%11)C=C4C%12=C2C(SC(/C=C%13C(C(C=C(F)C(F)=C%14)=C%14C\%13=C(C#N)/C#N)=O)=C%15)=C%15S%12,1499.92,PBDT-TZNT,5.39,3.3,2.09,CC(SC1=C2C3=CC=C(SCC(CC)CCCC)S3)=CC1=C(C4=CC=C(SCC(CC)CCCC)S4)C5=C2C=C(C6=CC=C(S6)C(C7=NN(CC(CCCCCC)CCCC)N=C78)=CC9=C8C=C(C%10=CC=C(C)S%10)C%11=NN(CC(CCCCCC)CCCC)N=C%119)S5,106.888,43.1,2.48,1,1,CF,DIO,100,100,,,
728,328,2019,12.16,11.81,17.58,0.706,0.98,ITIC,5.55,3.8,1.75,CCCCCCC(C=C1)=CC=C1C2(C3=CC=C(CCCCCC)C=C3)C4=CC5=C(C(C6=C5SC7=C6SC(/C=C8C(C(C=CC=C9)=C9C\8=C(C#N)\C#N)=O)=C7)(C%10=CC=C(CCCCCC)C=C%10)C%11=CC=C(CCCCCC)C=C%11)C=C4C%12=C2C(SC(/C=C%13C(C(C=CC=C%14)=C%14C\%13=C(C#N)/C#N)=O)=C%15)=C%15S%12,1427.96,PBDTF-TZNT,5.45,3.41,2.04,CC(SC1=C2C3=CC(F)=C(SCC(CC)CCCC)S3)=CC1=C(C4=CC(F)=C(SCC(CC)CCCC)S4)C5=C2C=C(C6=CC=C(S6)C(C7=NN(CC(CCCCCC)CCCC)N=C78)=CC9=C8C=C(C%10=CC=C(C)S%10)C%11=NN(CC(CCCCCC)CCCC)N=C%119)S5,111.695,44.5,2.51,1,1,CF,DIO,100,100,,,
729,328,2019,13.25,12.92,19.23,0.741,0.93,IT-4F,5.7,3.99,1.71,CCCCCCC(C=C1)=CC=C1C2(C3=CC=C(CCCCCC)C=C3)C4=CC5=C(C(C6=C5SC7=C6SC(/C=C8C(C(C=C(F)C(F)=C9)=C9C\8=C(C#N)\C#N)=O)=C7)(C%10=CC=C(CCCCCC)C=C%10)C%11=CC=C(CCCCCC)C=C%11)C=C4C%12=C2C(SC(/C=C%13C(C(C=C(F)C(F)=C%14)=C%14C\%13=C(C#N)/C#N)=O)=C%15)=C%15S%12,1499.92,PBDTF-TZNT,5.45,3.41,2.04,CC(SC1=C2C3=CC(F)=C(SCC(CC)CCCC)S3)=CC1=C(C4=CC(F)=C(SCC(CC)CCCC)S4)C5=C2C=C(C6=CC=C(S6)C(C7=NN(CC(CCCCCC)CCCC)N=C78)=CC9=C8C=C(C%10=CC=C(C)S%10)C%11=NN(CC(CCCCCC)CCCC)N=C%119)S5,111.695,44.5,2.51,1,1,CF,DIO,100,100,,,
730,329,2018,7.12,6.81,10.98,0.55,1.19,SF-PDI2,5.99,3.62,2.37,O=C(N(C(CCCCCC)CCCCCC)C1=O)C2=CC=C3C4=CC=C5C6=C4C(C7=C(C8=CC=C(C9=CC=C(C(C=C%10C(N(C(CCCCCC)CCCCCC)C%11=O)=O)=C%12C%13=CC=C%14C%15=C%13C(C%16=CC=C%11C%10=C%12%16)=CC=C%15C(N(C(CCCCCC)CCCCCC)C%14=O)=O)C=C9C%17%18C%19=CC=CC=C%19C%20=C%18C=CC=C%20)C%17=C8)C=C1C2=C37)=CC=C6C(N(C(CCCCCC)CCCCCC)C5=O)=O,1822.48,P3TAE,5.55,3.56,1.99,FC(C(F)=C(C1=CC=C(S1)C)C2=NSN=C23)=C3C4=CC=C(C5=C(C(OCC(CCCCCC)CCCCCCCC)=O)C=C(C6=C(CC(CCCCCC)CCCCCCCC)C=C(C7=C(F)C(F)=C(C8=CC(CC(CCCCCC)CCCCCCCC)=C(C9=CC(C(OCC(CCCCCC)CCCCCCCC)=O)=C(C)S9)S8)C%10=NSN=C7%10)S6)S5)S4,214.6,94.2,2.278131635,1,1.5,CB,NA,NA,,,,
731,329,2018,8.1,7.83,10.47,0.65,1.2,FTTB-PDI4,5.74,3.58,2.16,O=C(N(C(CCCCCC)CCCCCC)C1=O)C2=CC=C3C4=CC=C5C6=C4C7=C8C3=C2C1=CC8=C(SC(C9=CC(C%10=CC%11=C%12C=C%13C%14=C%15C(C%16=CC=C%17C%18=C%16C(C(C=C%18C(N(C(CCCCCC)CCCCCC)C%17=O)=O)=C%11S%10)=C%15%12)=CC=C%14C(N(C(CCCCCC)CCCCCC)C%13=O)=O)=C(C%19=CC%20=C(C=C%21C(N(C(CCCCCC)CCCCCC)C%22=O)=O)C%23=C%24C%25=C(C%26=CC%24=C%20S%19)C(C(N(C(CCCCCC)CCCCCC)C%26=O)=O)=CC=C%25C%27=CC=C%22C%21=C%23%27)C=C9C%28=CC%29=C%30C=C%31C%32=C(C%30=C%33C(C%34=CC=C%35C%36=O)=C%35C(C(N%36C(CCCCCC)CCCCCC)=O)=CC%33=C%29S%28)C%34=CC=C%32C(N(C(CCCCCC)CCCCCC)C%31=O)=O)=C%37)C%37=C7C=C6C(N(C(CCCCCC)CCCCCC)C5=O)=O,3410.69,P3TAE,5.55,3.56,1.99,FC(C(F)=C(C1=CC=C(S1)C)C2=NSN=C23)=C3C4=CC=C(C5=C(C(OCC(CCCCCC)CCCCCCCC)=O)C=C(C6=C(CC(CCCCCC)CCCCCCCC)C=C(C7=C(F)C(F)=C(C8=CC(CC(CCCCCC)CCCCCCCC)=C(C9=CC(C(OCC(CCCCCC)CCCCCCCC)=O)=C(C)S9)S8)C%10=NSN=C7%10)S6)S5)S4,214.6,94.2,2.278131635,1,1.5,CB,NA,NA,,,,
732,330,2018,9.81,9.37,13.72,0.71,0.97,IDIC,5.62,4.04,1.58,O=C(C(C=CC=C1)=C1C/2=C(C#N)\C#N)C2=C/C(S3)=CC4=C3C5=C(C4(CCCCCC)CCCCCC)C=C6C(C(CCCCCC)(CCCCCC)C7=C6SC(/C=C8C(C(C=CC=C9)=C9C\8=C(C#N)/C#N)=O)=C7)=C5,1011.4,PT4FB,5.59,3.61,1.98,CCCCCCCCN1N=C(C2=N1)C(C3=CC(CC(CCCCCCCCCCCC)CCCCCCCCCC)=C(C4=CC=C(C5=C(F)C(F)=C(C6=CC=C(C)S6)C(F)=C5F)S4)S3)=C(F)C(F)=C2C7=CC(CC(CCCCCCCCCC)CCCCCCCCCCCC)=C(C)S7,114.2,56.2,2.03202847,1,1.5,CB,NA,NA,,,,
733,330,2018,10.6,10.36,16.24,0.67,0.96,IDIC,5.62,4.04,1.58,O=C(C(C=CC=C1)=C1C/2=C(C#N)\C#N)C2=C/C(S3)=CC4=C3C5=C(C4(CCCCCC)CCCCCC)C=C6C(C(CCCCCC)(CCCCCC)C7=C6SC(/C=C8C(C(C=CC=C9)=C9C\8=C(C#N)/C#N)=O)=C7)=C5,1011.4,PTT4FB,5.58,3.58,2,CCCCCCCCN1N=C(C2=N1)C(C3=CC(C4=CC=C(CC(CCCCCCCCCCCC)CCCCCCCCCC)S4)=C(C5=CC=C(C6=C(F)C(F)=C(C7=CC=C(C)S7)C(F)=C6F)S5)S3)=C(F)C(F)=C2C8=CC(C9=CC=C(CC(CCCCCCCCCC)CCCCCCCCCCCC)S9)=C(C)S8,98,54.1,1.811460259,1,1.5,CB,NA,NA,,,,
734,331,2018,10.3,10.1,24.6,0.649,0.646,F8IC,5.43,4,1.43,O=C1C2=C(C(/C1=C/C3=CC(SC(C4=C5C(S6)=C(S4)C7=C6C(SC8=C9SC(/C=C%10/C(C%11=C(C%10=O)C=C(F)C(F)=C%11)=C(C#N)\C#N)=C8)=C9C(C(C=C%12)=CC=C%12CCCCCC)7C(C=C%13)=CC=C%13CCCCCC)=C%14C5(C(C=C%15)=CC=C%15CCCCCC)C(C=C%16)=CC=C%16CCCCCC)=C%14S3)=C(C#N)\C#N)C=C(F)C(F)=C2,1562.02,PTB7-Th,5.2,3.59,1.61,O=C(OCC(CC)CCCC)C1=C(F)C2=C(C)SC(C3=CC4=C(C(C5=CC=C(CC(CC)CCCC)S5)=C(C=C(C)S6)C6=C4C7=CC=C(CC(CC)CCCC)S7)S3)=C2S1,124,72.9,1.700960219,1,1.7,CF,NA,NA,,,,
735,331,2018,7.31,7.21,12.9,0.543,1.05,IDT-2BR,5.52,3.69,1.83,O=C(N(CC)C1=S)/C(S1)=C/C(C2=NSN=C23)=CC=C3C4=CC5=C(C6=C(C5(C7=CC=C(CCCCCC)C=C7)C8=CC=C(CCCCCC)C=C8)C=C(C9=C(C%10(C%11=CC=C(CCCCCC)C=C%11)C%12=CC=C(CCCCCC)C=C%12)C=C(C%13=CC=C(/C=C(S%14)\C(N(CC)C%14=S)=O)C%15=NSN=C%15%13)S9)C%10=C6)S4,1518.19,PTB7-Th,5.2,3.59,1.61,O=C(OCC(CC)CCCC)C1=C(F)C2=C(C)SC(C3=CC4=C(C(C5=CC=C(CC(CC)CCCC)S5)=C(C=C(C)S6)C6=C4C7=CC=C(CC(CC)CCCC)S7)S3)=C2S1,124,72.9,1.700960219,1,1.7,CF,NA,NA,,,,
736,332,2018,8.77,8.46,15.43,0.6318,0.9,TTz1,5.7,3.86,1.84,CCCCC(CCCCCC)CC1=C(SC(C2=CC=C(/C=C(C#N)\C#N)C3=NSN=C32)=C1)C4=NC(SC(C5=C(C=C(S5)C(C6=NSN=C67)=CC=C7/C=C(C#N)/C#N)CC(CCCCCC)CCCC)=N8)=C8S4,1063.51,J71,5.4,3.24,2.16,CCC[Si](CCC)(C1=CC=C(C(C2=C3C=C(C4=CC=C(C5=C(F)C(F)=C(C6=CC=C(C)S6)C7=NN(CC(CCCCCC)CCCCCCCC)N=C57)S4)S2)=C8C(SC(C)=C8)=C3C9=CC=C([Si](CCC)(CCC)CCC)S9)S1)CCC,139,56.2,2.473309609,1,2,CF,DIO,NA,100,,,
737,332,2018,6.3,6.05,12.75,0.5373,0.92,TTz2,5.5,3.8,1.7,CCCCC(CCCCCC)CC1=C(SC(C2=CC=C(/C=C3S/C(N(C\3=O)CC)=C(C#N)/C#N)C4=NSN=C42)=C1)C5=NC(SC(C6=C(C=C(S6)C7=CC=C(/C=C8S/C(N(C\8=O)CC)=C(C#N)/C#N)C9=NSN=C79)CC(CCCCCC)CCCC)=N%10)=C%10S5,1317.83,J71,5.4,3.24,2.16,CCC[Si](CCC)(C1=CC=C(C(C2=C3C=C(C4=CC=C(C5=C(F)C(F)=C(C6=CC=C(C)S6)C7=NN(CC(CCCCCC)CCCCCCCC)N=C57)S4)S2)=C8C(SC(C)=C8)=C3C9=CC=C([Si](CCC)(CCC)CCC)S9)S1)CCC,139,56.2,2.473309609,1,2,CF,DIO,NA,100,,,
738,333,2019,13.2,13.1,25.3,0.693,0.75,ACS8,5.54,4.05,1.49,CCCCCCC(C=C1)=CC=C1C(C2=C3SC(C4=C(SCC(CC)CCCC)C=C(/C=C5/C(C(C=C6F)=C(C5=O)C=C6F)=C(C#N)/C#N)S4)=C2)(C7=CC=C(CCCCCC)C=C7)C8=C3C=C(C(C9=C%10SC(C%11=C(C=C(/C=C%12C(C(C=C(C(F)=C%13)F)=C%13C\%12=C(C#N)\C#N)=O)S%11)SCC(CCCC)CC)=C9)(C%14=CC=C(CCCCCC)C=C%14)C%15=CC=C(CCCCCC)C=C%15)C%10=C8,1840.55,PTB7-Th,5.3,3.33,1.97,O=C(OCC(CC)CCCC)C1=C(F)C2=C(C)SC(C3=CC4=C(C(C5=CC=C(CC(CC)CCCC)S5)=C(C=C(C)S6)C6=C4C7=CC=C(CC(CC)CCCC)S7)S3)=C2S1,124,72.9,1.700960219,1,2,TL,PN,NA,115,,,
739,334,2019,12.1,11.9,24.73,0.678,0.722,FOIC,5.36,3.92,1.44,CCCCCCC(C=C1)=CC=C1C2(C3=CC=C(CCCCCC)C=C3)C4=C(SC5=C4SC6=C5C(C7=C6SC8=C7SC(/C=C9C(C(C=CC(F)=C%10)=C%10C\9=C(C#N)\C#N)=O)=C8)(C%11=CC=C(CCCCCC)C=C%11)C%12=CC=C(CCCCCC)C=C%12)C%13=C2C(SC(/C=C%14C(C(C=CC(F)=C%15)=C%15C\%14=C(C#N)/C#N)=O)=C%16)=C%16S%13,1526.04,PTB7-Th,5.2,3.69,1.51,O=C(OCC(CC)CCCC)C1=C(F)C2=C(C)SC(C3=CC4=C(C(C5=CC=C(CC(CC)CCCC)S5)=C(C=C(C)S6)C6=C4C7=CC=C(CC(CC)CCCC)S7)S3)=C2S1,124,72.9,1.700960219,1,1.5,CF,DPE,NA,,,,
740,335,2019,8.27,8.06,15.68,0.6627,0.8,m-IDTIDT-FIC,5.47,3.94,1.53,O=C1C2=C(C(/C1=C/C3=CC4=C(C5=CC6=C(C=C5C4(C7=CC=CC(CCCCCC)=C7)C8=CC(CCCCCC)=CC=C8)C9=C(C(S%10)=C(S9)C%11=C%10C%12=CC(C%13(C%14=CC=CC(CCCCCC)=C%14)C%15=CC(CCCCCC)=CC=C%15)=C(C%16=C%13C=C(S%16)/C=C%17/C(C%18=C(C%17=O)C=C(F)C(F)=C%18)=C(C#N)\C#N)C=C%12C(C%19=CC=CC(CCCCCC)=C%19)%11C%20=CC(CCCCCC)=CC=C%20)C6(C%21=CC(CCCCCC)=CC=C%21)C%22=CC=CC(CCCCCC)=C%22)S3)=C(C#N)/C#N)C=C(F)C(F)=C2,2267.12,PCE-10,5.2,3.6,1.6,CC(SC1=C2C3=CC=C(CC(CC)CCCC)S3)=CC1=C(C4=CC=C(CC(CC)CCCC)S4)C5=C2C=C(C6=C7C(SC(C(OCC(CC)CCCC)=O)=C7F)=C(C)S6)S5,47.043,23.781,1.978175855,1,1.5,CF,NA,150,,,,
741,335,2019,11.32,11.08,18.01,0.683,0.92,m-IDTIDT-FIC,5.47,3.94,1.53,O=C1C2=C(C(/C1=C/C3=CC4=C(C5=CC6=C(C=C5C4(C7=CC=CC(CCCCCC)=C7)C8=CC(CCCCCC)=CC=C8)C9=C(C(S%10)=C(S9)C%11=C%10C%12=CC(C%13(C%14=CC=CC(CCCCCC)=C%14)C%15=CC(CCCCCC)=CC=C%15)=C(C%16=C%13C=C(S%16)/C=C%17/C(C%18=C(C%17=O)C=C(F)C(F)=C%18)=C(C#N)\C#N)C=C%12C(C%19=CC=CC(CCCCCC)=C%19)%11C%20=CC(CCCCCC)=CC=C%20)C6(C%21=CC(CCCCCC)=CC=C%21)C%22=CC=CC(CCCCCC)=C%22)S3)=C(C#N)/C#N)C=C(F)C(F)=C2,2267.12,J71,5.4,3.24,2.16,CCC[Si](CCC)(C1=CC=C(C(C2=C3C=C(C4=CC=C(C5=C(F)C(F)=C(C6=CC=C(C)S6)C7=NN(CC(CCCCCC)CCCCCCCC)N=C57)S4)S2)=C8C(SC(C)=C8)=C3C9=CC=C([Si](CCC)(CCC)CCC)S9)S1)CCC,139,56.2,2.473309609,1,1.5,CF,NA,150,,,,
742,336,2019,11.87,11.5,18.95,0.729,0.86,BTTIC-0M,5.62,3.89,1.73,CCCCCCC(C=C1)=CC=C1C2(C3=CC=C(CCCCCC)C=C3)C4=C(C5=CC=C(CC(CC)CCCC)S5)C6=C(C(C7=C6SC8=C7SC(/C=C9C(C%10=CSC=C%10C\9=C(C#N)\C#N)=O)=C8)(C%11=CC=C(CCCCCC)C=C%11)C%12=CC=C(CCCCCC)C=C%12)C(C%13=CC=C(CC(CC)CCCC)S%13)=C4C%14=C2C(SC(/C=C%15C(C%16=CSC=C%16C\%15=C(C#N)/C#N)=O)=C%17)=C%17S%14,1828.67,PBDB-T,5.33,3.53,1.8,CC(SC1=C2C3=CC=C(CC(CC)CCCC)S3)=CC1=C(C4=CC=C(CC(CC)CCCC)S4)C5=C2C=C(S5)C6=CC=C(C7=C8C(C(C9=C(CC(CC)CCCC)SC(CC(CC)CCCC)=C9C8=O)=O)=C(C%10=CC=C(C)S%10)S7)S6,117,58.5,2,1,1,CF,DIO,100,100,,,
743,336,2019,13.15,12.68,19.39,0.753,0.9,BTTIC-2M,5.6,3.86,1.74,CCCCCCC(C=C1)=CC=C1C2(C3=CC=C(CCCCCC)C=C3)C4=C(C5=CC=C(CC(CC)CCCC)S5)C6=C(C(C7=C6SC8=C7SC(/C=C9C(C%10=C(C)SC=C%10C\9=C(C#N)\C#N)=O)=C8)(C%11=CC=C(CCCCCC)C=C%11)C%12=CC=C(CCCCCC)C=C%12)C(C%13=CC=C(CC(CC)CCCC)S%13)=C4C%14=C2C(SC(/C=C%15C(C%16=C(C)SC=C%16C\%15=C(C#N)/C#N)=O)=C%17)=C%17S%14,1856.73,PBDB-T,5.33,3.53,1.8,CC(SC1=C2C3=CC=C(CC(CC)CCCC)S3)=CC1=C(C4=CC=C(CC(CC)CCCC)S4)C5=C2C=C(S5)C6=CC=C(C7=C8C(C(C9=C(CC(CC)CCCC)SC(CC(CC)CCCC)=C9C8=O)=O)=C(C%10=CC=C(C)S%10)S7)S6,117,58.5,2,1,1,CF,DIO,100,100,,,
744,336,2019,9.6,9.28,15.67,0.637,0.968,BTTIC-4M,5.55,3.79,1.76,CCCCCCC(C=C1)=CC=C1C2(C3=CC=C(CCCCCC)C=C3)C4=C(C5=CC=C(CC(CC)CCCC)S5)C6=C(C(C7=C6SC8=C7SC(/C=C9C(C%10=C(C)SC(C)=C%10C\9=C(C#N)\C#N)=O)=C8)(C%11=CC=C(CCCCCC)C=C%11)C%12=CC=C(CCCCCC)C=C%12)C(C%13=CC=C(CC(CC)CCCC)S%13)=C4C%14=C2C(SC(/C=C%15C(C%16=C(C)SC(C)=C%16C\%15=C(C#N)/C#N)=O)=C%17)=C%17S%14,1884.78,PBDB-T,5.33,3.53,1.8,CC(SC1=C2C3=CC=C(CC(CC)CCCC)S3)=CC1=C(C4=CC=C(CC(CC)CCCC)S4)C5=C2C=C(S5)C6=CC=C(C7=C8C(C(C9=C(CC(CC)CCCC)SC(CC(CC)CCCC)=C9C8=O)=O)=C(C%10=CC=C(C)S%10)S7)S6,117,58.5,2,1,1,CF,DIO,100,100,,,