ID,Ref,year,PCE_max(%),PCE_ave(%),Jsc(mA/cm2),FF,Voc(V),Nickname(n),-HOMO_n(eV),-LUMO_n(eV),Eg_n(eV),n(SMILES),M (g/mol),Nickname(p),-HOMO_p(eV),-LUMO_p(eV),Eg_p(eV),p(SMILES),Mw (kg/mol),Mn(kg/mol),PDI,p/n ratio (p),p/n ratio (n),Solvent,Additive,TA (oC),thick (nm),,Journal,DOI
1073,481,2019,12.9,12.9,18.3,0.78,0.893,F-2Cl,5.5,3.86,1.64,O=C(C(C=C(Cl)C(Cl)=C1)=C1C/2=C(C#N)/C#N)C2=C/C3=CC(C(CCCCCCCC)(CCCCCCCC)C4=C5C=C(C6(CCCCCCCC)CCCCCCCC)C(C(C6=C7)=CC8=C7C(SC(/C=C9/C(C%10=C(C9=O)C=C(Cl)C(Cl)=C%10)=C(C#N)\C#N)=C%11)=C%11C8(CCCCCCCC)CCCCCCCC)=C4)=C5S3,1573.93,PM6,5.45,3.65,1.8,CC(SC1=C2C3=CC(F)=C(CC(CC)CCCC)S3)=CC1=C(C4=CC(F)=C(CC(CC)CCCC)S4)C5=C2C=C(S5)C6=CC=C(C7=C8C(C(C9=C(CC(CC)CCCC)SC(CC(CC)CCCC)=C9C8=O)=O)=C(C%10=CC=C(C)S%10)S7)S6,38.6,19.3,2,1,1,CB,DIO,NA,60,,,
1074,481,2019,13.53,13.53,19.52,0.78,0.891,F-2Cl,5.5,3.86,1.64,O=C(C(C=C(Cl)C(Cl)=C1)=C1C/2=C(C#N)/C#N)C2=C/C3=CC(C(CCCCCCCC)(CCCCCCCC)C4=C5C=C(C6(CCCCCCCC)CCCCCCCC)C(C(C6=C7)=CC8=C7C(SC(/C=C9/C(C%10=C(C9=O)C=C(Cl)C(Cl)=C%10)=C(C#N)\C#N)=C%11)=C%11C8(CCCCCCCC)CCCCCCCC)=C4)=C5S3,1573.93,PM6,5.45,3.65,1.8,CC(SC1=C2C3=CC(F)=C(CC(CC)CCCC)S3)=CC1=C(C4=CC(F)=C(CC(CC)CCCC)S4)C5=C2C=C(S5)C6=CC=C(C7=C8C(C(C9=C(CC(CC)CCCC)SC(CC(CC)CCCC)=C9C8=O)=O)=C(C%10=CC=C(C)S%10)S7)S6,38.6,19.3,2,1,1,CB,DIO,NA,100,,,
1075,481,2019,13.8,13.8,19.74,0.78,0.893,F-2Cl,5.5,3.86,1.64,O=C(C(C=C(Cl)C(Cl)=C1)=C1C/2=C(C#N)/C#N)C2=C/C3=CC(C(CCCCCCCC)(CCCCCCCC)C4=C5C=C(C6(CCCCCCCC)CCCCCCCC)C(C(C6=C7)=CC8=C7C(SC(/C=C9/C(C%10=C(C9=O)C=C(Cl)C(Cl)=C%10)=C(C#N)\C#N)=C%11)=C%11C8(CCCCCCCC)CCCCCCCC)=C4)=C5S3,1573.93,PM6,5.45,3.65,1.8,CC(SC1=C2C3=CC(F)=C(CC(CC)CCCC)S3)=CC1=C(C4=CC(F)=C(CC(CC)CCCC)S4)C5=C2C=C(S5)C6=CC=C(C7=C8C(C(C9=C(CC(CC)CCCC)SC(CC(CC)CCCC)=C9C8=O)=O)=C(C%10=CC=C(C)S%10)S7)S6,38.6,19.3,2,1,1,CB,DIO,NA,120,,,
1076,481,2019,11.93,11.93,19.94,0.68,0.879,F-2Cl,5.5,3.86,1.64,O=C(C(C=C(Cl)C(Cl)=C1)=C1C/2=C(C#N)/C#N)C2=C/C3=CC(C(CCCCCCCC)(CCCCCCCC)C4=C5C=C(C6(CCCCCCCC)CCCCCCCC)C(C(C6=C7)=CC8=C7C(SC(/C=C9/C(C%10=C(C9=O)C=C(Cl)C(Cl)=C%10)=C(C#N)\C#N)=C%11)=C%11C8(CCCCCCCC)CCCCCCCC)=C4)=C5S3,1573.93,PM6,5.45,3.65,1.8,CC(SC1=C2C3=CC(F)=C(CC(CC)CCCC)S3)=CC1=C(C4=CC(F)=C(CC(CC)CCCC)S4)C5=C2C=C(S5)C6=CC=C(C7=C8C(C(C9=C(CC(CC)CCCC)SC(CC(CC)CCCC)=C9C8=O)=O)=C(C%10=CC=C(C)S%10)S7)S6,38.6,19.3,2,1,1,CB,DIO,NA,200,,,
1077,481,2019,10.51,10.51,20,0.6,0.867,F-2Cl,5.5,3.86,1.64,O=C(C(C=C(Cl)C(Cl)=C1)=C1C/2=C(C#N)/C#N)C2=C/C3=CC(C(CCCCCCCC)(CCCCCCCC)C4=C5C=C(C6(CCCCCCCC)CCCCCCCC)C(C(C6=C7)=CC8=C7C(SC(/C=C9/C(C%10=C(C9=O)C=C(Cl)C(Cl)=C%10)=C(C#N)\C#N)=C%11)=C%11C8(CCCCCCCC)CCCCCCCC)=C4)=C5S3,1573.93,PM6,5.45,3.65,1.8,CC(SC1=C2C3=CC(F)=C(CC(CC)CCCC)S3)=CC1=C(C4=CC(F)=C(CC(CC)CCCC)S4)C5=C2C=C(S5)C6=CC=C(C7=C8C(C(C9=C(CC(CC)CCCC)SC(CC(CC)CCCC)=C9C8=O)=O)=C(C%10=CC=C(C)S%10)S7)S6,38.6,19.3,2,1,1,CB,DIO,NA,250,,,
1078,481,2019,10,10,19.73,0.58,0.866,F-2Cl,5.5,3.86,1.64,O=C(C(C=C(Cl)C(Cl)=C1)=C1C/2=C(C#N)/C#N)C2=C/C3=CC(C(CCCCCCCC)(CCCCCCCC)C4=C5C=C(C6(CCCCCCCC)CCCCCCCC)C(C(C6=C7)=CC8=C7C(SC(/C=C9/C(C%10=C(C9=O)C=C(Cl)C(Cl)=C%10)=C(C#N)\C#N)=C%11)=C%11C8(CCCCCCCC)CCCCCCCC)=C4)=C5S3,1573.93,PM6,5.45,3.65,1.8,CC(SC1=C2C3=CC(F)=C(CC(CC)CCCC)S3)=CC1=C(C4=CC(F)=C(CC(CC)CCCC)S4)C5=C2C=C(S5)C6=CC=C(C7=C8C(C(C9=C(CC(CC)CCCC)SC(CC(CC)CCCC)=C9C8=O)=O)=C(C%10=CC=C(C)S%10)S7)S6,38.6,19.3,2,1,1,CB,DIO,NA,350,,,
1079,481,2019,9.03,9.03,19.78,0.53,0.852,F-2Cl,5.5,3.86,1.64,O=C(C(C=C(Cl)C(Cl)=C1)=C1C/2=C(C#N)/C#N)C2=C/C3=CC(C(CCCCCCCC)(CCCCCCCC)C4=C5C=C(C6(CCCCCCCC)CCCCCCCC)C(C(C6=C7)=CC8=C7C(SC(/C=C9/C(C%10=C(C9=O)C=C(Cl)C(Cl)=C%10)=C(C#N)\C#N)=C%11)=C%11C8(CCCCCCCC)CCCCCCCC)=C4)=C5S3,1573.93,PM6,5.45,3.65,1.8,CC(SC1=C2C3=CC(F)=C(CC(CC)CCCC)S3)=CC1=C(C4=CC(F)=C(CC(CC)CCCC)S4)C5=C2C=C(S5)C6=CC=C(C7=C8C(C(C9=C(CC(CC)CCCC)SC(CC(CC)CCCC)=C9C8=O)=O)=C(C%10=CC=C(C)S%10)S7)S6,38.6,19.3,2,1,1,CB,DIO,NA,500,,,
1080,482,2019,5.18,4.84,11.97,0.441,1,TPP-PDI,5.85,3.64,2.21,O=C(C(C=C(Cl)C(Cl)=C1)=C1C/2=C(C#N)/C#N)C2=C/C3=CC(C(CCCCCCCC)(CCCCCCCC)C4=C5C=C(C6(CCCCCCCC)CCCCCCCC)C(C(C6=C7)=CC8=C7C(SC(/C=C9/C(C%10=C(C9=O)C=C(Cl)C(Cl)=C%10)=C(C#N)\C#N)=C%11)=C%11C8(CCCCCCCC)CCCCCCCC)=C4)=C5S3,2184.76,PTTEA,5.4,3.54,1.86,FC(C(F)=C(C1=CC(C(OCC(CCCCCCCCCC)CCCCCCCC)=O)=C(C2=CC(CC(CCCCCCCC)CCCCCC)=C(C3=CC=C(C4=C(F)C(F)=C(C5=CC=C(C)S5)C6=NSN=C64)S3)S2)S1)C7=NSN=C78)=C8C9=CC(C(OCC(CCCCCCCCCC)CCCCCCCC)=O)=C(C%10=CC(CC(CCCCCCCC)CCCCCC)=C(C)S%10)S9,99.704,48.4,2.06,1,1.5,TMB,BPO,100,100,,,
1081,482,2019,6.19,5.86,11.99,0.484,1.01,TPP-PDI,5.85,3.64,2.21,O=C(C(C=C(Cl)C(Cl)=C1)=C1C/2=C(C#N)/C#N)C2=C/C3=CC(C(CCCCCCCC)(CCCCCCCC)C4=C5C=C(C6(CCCCCCCC)CCCCCCCC)C(C(C6=C7)=CC8=C7C(SC(/C=C9/C(C%10=C(C9=O)C=C(Cl)C(Cl)=C%10)=C(C#N)\C#N)=C%11)=C%11C8(CCCCCCCC)CCCCCCCC)=C4)=C5S3,2184.76,PTTEA,5.4,3.54,1.86,FC(C(F)=C(C1=CC(C(OCC(CCCCCCCCCC)CCCCCCCC)=O)=C(C2=CC(CC(CCCCCCCC)CCCCCC)=C(C3=CC=C(C4=C(F)C(F)=C(C5=CC=C(C)S5)C6=NSN=C64)S3)S2)S1)C7=NSN=C78)=C8C9=CC(C(OCC(CCCCCCCCCC)CCCCCCCC)=O)=C(C%10=CC(CC(CCCCCCCC)CCCCCC)=C(C)S%10)S9,99.704,48.4,2.06,1,1.5,TMB,BPO,100,100,,,
1082,482,2019,8.65,8.31,13.31,0.644,0.97,TPO-PDI,5.88,3.7,2.18,O=C(N1C(CCCC)CCCC)C2=C3C4=C(C=C2)C5=CC=C6C7=C(C(N(C(CCCC)CCCC)C6=O)=O)C=C(C8=CC=C(P(C(C=C9)=CC=C9C%10=CC(C(N%11C(CCCC)CCCC)=O)=C%12C%13=C%10C%14=CC=C%15C%16=C(C(N(C(CCCC)CCCC)C%15=O)=O)C=CC(C%13=CC=C%12C%11=O)=C%14%16)(C(C=C%17)=CC=C%17C%18=CC(C(N%19C(CCCC)CCCC)=O)=C%20C(C%21=CC=C%20C%19=O)=C%18C%22=CC=C%23C%24=C(C(N(C(CCCC)CCCC)C%23=O)=O)C=CC%21=C%22%24)=O)C=C8)C(C4=CC=C3C1=O)=C57,2200.76,PTTEA,5.4,3.54,1.86,FC(C(F)=C(C1=CC(C(OCC(CCCCCCCCCC)CCCCCCCC)=O)=C(C2=CC(CC(CCCCCCCC)CCCCCC)=C(C3=CC=C(C4=C(F)C(F)=C(C5=CC=C(C)S5)C6=NSN=C64)S3)S2)S1)C7=NSN=C78)=C8C9=CC(C(OCC(CCCCCCCCCC)CCCCCCCC)=O)=C(C%10=CC(CC(CCCCCCCC)CCCCCC)=C(C)S%10)S9,99.704,48.4,2.06,1,1.5,TMB,BPO,100,100,,,
1083,482,2019,11.01,10.68,14.71,0.741,0.98,TPO-PDI,5.88,3.7,2.18,O=C(N1C(CCCC)CCCC)C2=C3C4=C(C=C2)C5=CC=C6C7=C(C(N(C(CCCC)CCCC)C6=O)=O)C=C(C8=CC=C(P(C(C=C9)=CC=C9C%10=CC(C(N%11C(CCCC)CCCC)=O)=C%12C%13=C%10C%14=CC=C%15C%16=C(C(N(C(CCCC)CCCC)C%15=O)=O)C=CC(C%13=CC=C%12C%11=O)=C%14%16)(C(C=C%17)=CC=C%17C%18=CC(C(N%19C(CCCC)CCCC)=O)=C%20C(C%21=CC=C%20C%19=O)=C%18C%22=CC=C%23C%24=C(C(N(C(CCCC)CCCC)C%23=O)=O)C=CC%21=C%22%24)=O)C=C8)C(C4=CC=C3C1=O)=C57,2200.76,PTTEA,5.4,3.54,1.86,FC(C(F)=C(C1=CC(C(OCC(CCCCCCCCCC)CCCCCCCC)=O)=C(C2=CC(CC(CCCCCCCC)CCCCCC)=C(C3=CC=C(C4=C(F)C(F)=C(C5=CC=C(C)S5)C6=NSN=C64)S3)S2)S1)C7=NSN=C78)=C8C9=CC(C(OCC(CCCCCCCCCC)CCCCCCCC)=O)=C(C%10=CC(CC(CCCCCCCC)CCCCCC)=C(C)S%10)S9,99.704,48.4,2.06,1,1.5,TMB,BPO,100,100,,,
1084,482,2019,8,7.64,12.92,0.622,0.95,TPS-PDI,5.89,3.74,2.15,O=C(N1C(CCCC)CCCC)C2=C3C4=C(C=C2)C5=CC=C6C7=C(C(N(C(CCCC)CCCC)C6=O)=O)C=C(C8=CC=C(P(C(C=C9)=CC=C9C%10=CC(C(N%11C(CCCC)CCCC)=O)=C%12C%13=C%10C%14=CC=C%15C%16=C(C(N(C(CCCC)CCCC)C%15=O)=O)C=CC(C%13=CC=C%12C%11=O)=C%14%16)(C(C=C%17)=CC=C%17C%18=CC(C(N%19C(CCCC)CCCC)=O)=C%20C(C%21=CC=C%20C%19=O)=C%18C%22=CC=C%23C%24=C(C(N(C(CCCC)CCCC)C%23=O)=O)C=CC%21=C%22%24)=S)C=C8)C(C4=CC=C3C1=O)=C57,2216.82,PTTEA,5.4,3.54,1.86,FC(C(F)=C(C1=CC(C(OCC(CCCCCCCCCC)CCCCCCCC)=O)=C(C2=CC(CC(CCCCCCCC)CCCCCC)=C(C3=CC=C(C4=C(F)C(F)=C(C5=CC=C(C)S5)C6=NSN=C64)S3)S2)S1)C7=NSN=C78)=C8C9=CC(C(OCC(CCCCCCCCCC)CCCCCCCC)=O)=C(C%10=CC(CC(CCCCCCCC)CCCCCC)=C(C)S%10)S9,99.704,48.4,2.06,1,1.5,TMB,BPO,100,100,,,
1085,482,2019,9.67,9.67,13.98,0.694,0.96,TPS-PDI,5.89,3.74,2.15,O=C(N1C(CCCC)CCCC)C2=C3C4=C(C=C2)C5=CC=C6C7=C(C(N(C(CCCC)CCCC)C6=O)=O)C=C(C8=CC=C(P(C(C=C9)=CC=C9C%10=CC(C(N%11C(CCCC)CCCC)=O)=C%12C%13=C%10C%14=CC=C%15C%16=C(C(N(C(CCCC)CCCC)C%15=O)=O)C=CC(C%13=CC=C%12C%11=O)=C%14%16)(C(C=C%17)=CC=C%17C%18=CC(C(N%19C(CCCC)CCCC)=O)=C%20C(C%21=CC=C%20C%19=O)=C%18C%22=CC=C%23C%24=C(C(N(C(CCCC)CCCC)C%23=O)=O)C=CC%21=C%22%24)=S)C=C8)C(C4=CC=C3C1=O)=C57,2216.82,PTTEA,5.4,3.54,1.86,FC(C(F)=C(C1=CC(C(OCC(CCCCCCCCCC)CCCCCCCC)=O)=C(C2=CC(CC(CCCCCCCC)CCCCCC)=C(C3=CC=C(C4=C(F)C(F)=C(C5=CC=C(C)S5)C6=NSN=C64)S3)S2)S1)C7=NSN=C78)=C8C9=CC(C(OCC(CCCCCCCCCC)CCCCCCCC)=O)=C(C%10=CC(CC(CCCCCCCC)CCCCCC)=C(C)S%10)S9,99.704,48.4,2.06,1,1.5,TMB,BPO,100,100,,,
1086,483,2019,13.1,12.9,19.4,0.72,0.9,IT-4F,5.7,4.1,1.6,CCCCCCC(C=C1)=CC=C1C2(C3=CC=C(CCCCCC)C=C3)C4=CC5=C(C(C6=C5SC7=C6SC(/C=C8C(C(C=C(F)C(F)=C9)=C9C\8=C(C#N)\C#N)=O)=C7)(C%10=CC=C(CCCCCC)C=C%10)C%11=CC=C(CCCCCC)C=C%11)C=C4C%12=C2C(SC(/C=C%13C(C(C=C(F)C(F)=C%14)=C%14C\%13=C(C#N)/C#N)=O)=C%15)=C%15S%12,1499.92,PBDB-T-SF,5.42,3.64,1.78,CC(SC1=C2C3=CC(F)=C(SCC(CC)CCCC)S3)=CC1=C(C4=CC(F)=C(SCC(CC)CCCC)S4)C5=C2C=C(C6=CC=C(C7=C8C(C(C9=C(CC(CC)CCCC)SC(CC(CC)CCCC)=C9C8=O)=O)=C(C%10=CC=C(C)S%10)S7)S6)S5,58.194,18.348,3.171680837,1,1,CB,DIO,NA,140,,,
1087,483,2019,15.3,14.9,24.8,0.72,0.85,Y6,5.6,3.8,1.8,O=C(C(C=C(F)C(F)=C1)=C1C/2=C(C#N)/C#N)C2=C/C3=C(CCCCCCCCCCC)C(SC4=C5N(CC(CC)CCCC)C6=C4C7=NSN=C7C8=C6N(CC(CC)CCCC)C9=C8SC%10=C9SC(/C=C%11/C(C%12=C(C%11=O)C=C(F)C(F)=C%12)=C(C#N)\C#N)=C%10CCCCCCCCCCC)=C5S3,1451.94,PBDB-T-2F,5.45,3.65,1.8,CC(SC1=C2C3=CC(F)=C(CC(CC)CCCC)S3)=CC1=C(C4=CC(F)=C(CC(CC)CCCC)S4)C5=C2C=C(C6=CC=C(C7=C8C(C(C9=C(CC(CC)CCCC)SC(CC(CC)CCCC)=C9C8=O)=O)=C(C%10=CC=C(C)S%10)S7)S6)S5,87.845,30.282,2.900898223,1,1.2,CF,CN,NA,140,,,
1088,484,2019,13.4,13,21.4,0.695,0.88,Y1,5.45,3.95,1.5,CCCCC(CN1C2=C(C3=C1C(SC(/C=C4/C(C5=C(C4=O)C=CC=C5)=C(C#N)/C#N)=C6)=C6S3)C7=NN(N=C7C8=C2N(C9=C8SC%10=C9SC(/C=C%11C(C(C=CC=C%12)=C%12C\%11=C(C#N)\C#N)=O)=C%10)CC(CCCC)CC)CC(CCCC)CC)CC,1166.55,PBDB-T,5.39,3.48,1.91,CC(SC1=C2C3=CC=C(CC(CC)CCCC)S3)=CC1=C(C4=CC=C(CC(CC)CCCC)S4)C5=C2C=C(S5)C6=CC=C(C7=C8C(C(C9=C(CC(CC)CCCC)SC(CC(CC)CCCC)=C9C8=O)=O)=C(C%10=CC=C(C)S%10)S7)S6,117,58.5,2,1,1,CB,CN,NA,107,,,
1089,484,2019,9.9,9.6,22.7,0.574,0.74,Y1-4F,5.56,4.11,1.45,CCCCCCC(C=C1)=CC=C1C2(C3=CC=C(CCCCCC)C=C3)C4=CC5=C(C(C6=C5SC7=C6SC(/C=C8C(C(C=C(F)C(F)=C9)=C9C\8=C(C#N)\C#N)=O)=C7)(C%10=CC=C(CCCCCC)C=C%10)C%11=CC=C(CCCCCC)C=C%11)C=C4C%12=C2C(SC(/C=C%13C(C(C=C(F)C(F)=C%14)=C%14C\%13=C(C#N)/C#N)=O)=C%15)=C%15S%12,1499.92,PBDB-T,5.39,3.48,1.91,CC(SC1=C2C3=CC=C(CC(CC)CCCC)S3)=CC1=C(C4=CC=C(CC(CC)CCCC)S4)C5=C2C=C(S5)C6=CC=C(C7=C8C(C(C9=C(CC(CC)CCCC)SC(CC(CC)CCCC)=C9C8=O)=O)=C(C%10=CC=C(C)S%10)S7)S6,117,58.5,2,1,1,CB,CN,NA,107,,,
1090,484,2019,7.1,6.6,12.9,0.555,0.92,Y1,5.45,3.95,1.5,CCCCC(CN1C2=C(C3=C1C(SC(/C=C4/C(C5=C(C4=O)C=CC=C5)=C(C#N)/C#N)=C6)=C6S3)C7=NN(N=C7C8=C2N(C9=C8SC%10=C9SC(/C=C%11C(C(C=CC=C%12)=C%12C\%11=C(C#N)\C#N)=O)=C%10)CC(CCCC)CC)CC(CCCC)CC)CC,1166.55,PBDB-T-F,5.5,3.5,2,CC(SC1=C2C3=CC(F)=C(CC(CC)CCCC)S3)=CC1=C(C4=CC(F)=C(CC(CC)CCCC)S4)C5=C2C=C(C6=CC=C(C7=C8C(C(C9=C(CC(CC)CCCC)SC(CC(CC)CCCC)=C9C8=O)=O)=C(C%10=CC=C(C)S%10)S7)S6)S5,87.845,30.282,2.900898223,1,1,CB,CN,NA,107,,,
1091,484,2019,14.8,14.4,25.2,0.685,0.83,Y1-4F,5.56,4.11,1.45,CCCCCCC(C=C1)=CC=C1C2(C3=CC=C(CCCCCC)C=C3)C4=CC5=C(C(C6=C5SC7=C6SC(/C=C8C(C(C=C(F)C(F)=C9)=C9C\8=C(C#N)\C#N)=O)=C7)(C%10=CC=C(CCCCCC)C=C%10)C%11=CC=C(CCCCCC)C=C%11)C=C4C%12=C2C(SC(/C=C%13C(C(C=C(F)C(F)=C%14)=C%14C\%13=C(C#N)/C#N)=O)=C%15)=C%15S%12,1499.92,PBDB-T-F,5.5,3.5,2,CC(SC1=C2C3=CC(F)=C(CC(CC)CCCC)S3)=CC1=C(C4=CC(F)=C(CC(CC)CCCC)S4)C5=C2C=C(C6=CC=C(C7=C8C(C(C9=C(CC(CC)CCCC)SC(CC(CC)CCCC)=C9C8=O)=O)=C(C%10=CC=C(C)S%10)S7)S6)S5,87.845,30.282,2.900898223,1,1,CB,CN,NA,107,,,
1092,485,2019,16,15.9,25.5,0.74,0.84,Y6,5.7,4.06,1.64,O=C(C(C=C(F)C(F)=C1)=C1C/2=C(C#N)/C#N)C2=C/C3=C(CCCCCCCCCCC)C(SC4=C5N(CC(CC)CCCC)C6=C4C7=NSN=C7C8=C6N(CC(CC)CCCC)C9=C8SC%10=C9SC(/C=C%11/C(C%12=C(C%11=O)C=C(F)C(F)=C%12)=C(C#N)\C#N)=C%10CCCCCCCCCCC)=C5S3,1451.94,PM6,5.53,3.54,1.99,CC(SC1=C2C3=CC(F)=C(CC(CC)CCCC)S3)=CC1=C(C4=CC(F)=C(CC(CC)CCCC)S4)C5=C2C=C(S5)C6=CC=C(C7=C8C(C(C9=C(CC(CC)CCCC)SC(CC(CC)CCCC)=C9C8=O)=O)=C(C%10=CC=C(C)S%10)S7)S6,38.6,19.3,2,1,1.2,CF,CN,100,110,,,
1093,485,2019,13.9,13.7,20.3,0.739,0.92,3TP3T-4F,5.66,4.02,1.64,O=C1C2=C(C=C(F)C(F)=C2)C(/C1=C/C3=CC(S4)=C(S3)C(S5)=C4C6=C5C7=CC(C(C8=CC=C(CCCCCC)C=C8)(C9=CC=C(CCCCCC)C=C9)C%10=C%11SC%12=C%10SC%13=C%12SC(/C=C%14/C(C(C=C(F)C(F)=C%15)=C%15C%14=O)=C(C#N)\C#N)=C%13)=C%11C=C7C6(C%16=CC(CCCCCC)=CC=C%16)C%17=CC=C(CCCCCC)C=C%17)=C(C#N)\C#N,1612.08,PM6,5.53,3.54,1.99,CC(SC1=C2C3=CC(F)=C(CC(CC)CCCC)S3)=CC1=C(C4=CC(F)=C(CC(CC)CCCC)S4)C5=C2C=C(S5)C6=CC=C(C7=C8C(C(C9=C(CC(CC)CCCC)SC(CC(CC)CCCC)=C9C8=O)=O)=C(C%10=CC=C(C)S%10)S7)S6,38.6,19.3,2,1,1.2,CF,CN,100,110,,,
1094,485,2019,9,8.9,13,0.656,1.05,3TP3T-IC,5.55,3.88,1.67,O=C1C2=C(C=CC=C2)C(/C1=C/C3=CC(S4)=C(S3)C(S5)=C4C6=C5C7=CC(C(C8=CC=C(CCCCCC)C=C8)(C9=CC=C(CCCCCC)C=C9)C%10=C%11SC%12=C%10SC%13=C%12SC(/C=C%14/C(C(C=CC=C%15)=C%15C%14=O)=C(C#N)\C#N)=C%13)=C%11C=C7C6(C%16=CC(CCCCCC)=CC=C%16)C%17=CC=C(CCCCCC)C=C%17)=C(C#N)\C#N,1540.12,PM6,5.53,3.54,1.99,CC(SC1=C2C3=CC(F)=C(CC(CC)CCCC)S3)=CC1=C(C4=CC(F)=C(CC(CC)CCCC)S4)C5=C2C=C(S5)C6=CC=C(C7=C8C(C(C9=C(CC(CC)CCCC)SC(CC(CC)CCCC)=C9C8=O)=O)=C(C%10=CC=C(C)S%10)S7)S6,38.6,19.3,2,1,1.2,CF,CN,100,110,,,
1095,486,2019,6.62,6.31,11.75,0.624,0.86,TrBTIC,5.56,3.62,1.94,O=C1C2=C(C=CC=C2)C(/C1=C/C3=CC=C(C4=CC5=C(C=C4)C6=C7C(CCCC)(CCCC)C8=C(C=CC(C(C9=NSN=C9%10)=CC=C%10/C=C%11/C(C(C=CC=C%12)=C%12C%11=O)=C(C#N)\C#N)=C8)C7=C%13C(CCCC)(CCCC)C%14=C(C=CC(C(C%15=NSN=C%15%16)=CC=C%16/C=C%17/C(C(C=CC=C%18)=C%18C%17=O)=C(C#N)\C#N)=C%14)C%13=C6C5(CCCC)CCCC)C%19=NSN=C%193)=C(C#N)\C#N,1694.12,P3HT,5,3.1,1.9,CC1=CC(CCCCCC)=C(C)S1,21.1,11.6,1.818965517,1,1.2,CB,NA,150,110,,,
1096,487,2019,9.53,9.53,16.8,0.6257,0.907,ITIC-Th,5.66,3.93,1.73,O=C(C(C=CC=C1)=C1C/2=C(C#N)\C#N)C2=C/C3=CC(S4)=C(S3)C5=C4C6=CC(C(C7=C8SC9=C7SC(/C=C%10C(C(C=CC=C%11)=C%11C\%10=C(C#N)\C#N)=O)=C9)(C%12=CC=C(CCCCCC)S%12)C%13=CC=C(CCCCCC)S%13)=C8C=C6C(C%14=CSC(CCCCCC)=C%14)5C%15=CC=C(CCCCCC)S%15,1452.04,FTAZ,5.38,3.17,2.21,CC1=CC2=C(S1)C(CCC(CCCC)CCCCCC)=C3C=C(SC3=C2CCC(CCCC)CCCCCC)C4=CC=C(S4)C5=C(C(F)=C(C6=NN(N=C65)CC(CCCC)CCCCCC)C7=CC=C(S7)C)F,99.6,42.2,2.360189573,1,1.5,CF,NA,NA,90,,,
1097,487,2019,9.04,9.04,16.4,0.6269,0.879,ITIC-Th,5.66,3.93,1.73,O=C(C(C=CC=C1)=C1C/2=C(C#N)\C#N)C2=C/C3=CC(S4)=C(S3)C5=C4C6=CC(C(C7=C8SC9=C7SC(/C=C%10C(C(C=CC=C%11)=C%11C\%10=C(C#N)\C#N)=O)=C9)(C%12=CC=C(CCCCCC)S%12)C%13=CC=C(CCCCCC)S%13)=C8C=C6C(C%14=CSC(CCCCCC)=C%14)5C%15=CC=C(CCCCCC)S%15,1452.04,FTAZ,5.38,3.17,2.21,CC1=CC2=C(S1)C(CCC(CCCC)CCCCCC)=C3C=C(SC3=C2CCC(CCCC)CCCCCC)C4=CC=C(S4)C5=C(C(F)=C(C6=NN(N=C65)CC(CCCC)CCCCCC)C7=CC=C(S7)C)F,99.6,42.2,2.360189573,1,1.5,CF,DIO,NA,90,,,
1098,487,2019,10.44,10.44,17.82,0.663,0.884,ITIC-Th,5.66,3.93,1.73,O=C(C(C=CC=C1)=C1C/2=C(C#N)\C#N)C2=C/C3=CC(S4)=C(S3)C5=C4C6=CC(C(C7=C8SC9=C7SC(/C=C%10C(C(C=CC=C%11)=C%11C\%10=C(C#N)\C#N)=O)=C9)(C%12=CC=C(CCCCCC)S%12)C%13=CC=C(CCCCCC)S%13)=C8C=C6C(C%14=CSC(CCCCCC)=C%14)5C%15=CC=C(CCCCCC)S%15,1452.04,FTAZ,5.38,3.17,2.21,CC1=CC2=C(S1)C(CCC(CCCC)CCCCCC)=C3C=C(SC3=C2CCC(CCCC)CCCCCC)C4=CC=C(S4)C5=C(C(F)=C(C6=NN(N=C65)CC(CCCC)CCCCCC)C7=CC=C(S7)C)F,99.6,42.2,2.360189573,1,1.5,CF,ODT,NA,90,,,
1099,488,2019,9.1,9.1,15.7,0.62,0.94,ITIC,5.51,3.84,1.67,CCCCCCC(C=C1)=CC=C1C2(C3=CC=C(CCCCCC)C=C3)C4=CC5=C(C(C6=C5SC7=C6SC(/C=C8C(C(C=CC=C9)=C9C\8=C(C#N)\C#N)=O)=C7)(C%10=CC=C(CCCCCC)C=C%10)C%11=CC=C(CCCCCC)C=C%11)C=C4C%12=C2C(SC(/C=C%13C(C(C=CC=C%14)=C%14C\%13=C(C#N)/C#N)=O)=C%15)=C%15S%12,1427.96,PBDT(T)[2F]T,5.22,3.22,2,CC(SC1=C2C3=CC=C(CC(CC)CCCC)S3)=CC1=C(C4=CC=C(CC(CC)CCCC)S4)C5=C2C=C(S5)C6=C(F)C(F)=C(C)S6,49,32,1.53125,1,1,CB,NA,NA,95,,,
1100,488,2019,10,10,16.8,0.68,0.87,ITIC,5.51,3.84,1.67,CCCCCCC(C=C1)=CC=C1C2(C3=CC=C(CCCCCC)C=C3)C4=CC5=C(C(C6=C5SC7=C6SC(/C=C8C(C(C=CC=C9)=C9C\8=C(C#N)\C#N)=O)=C7)(C%10=CC=C(CCCCCC)C=C%10)C%11=CC=C(CCCCCC)C=C%11)C=C4C%12=C2C(SC(/C=C%13C(C(C=CC=C%14)=C%14C\%13=C(C#N)/C#N)=O)=C%15)=C%15S%12,1427.96,PBDB-T,5.33,3.53,1.8,CC(SC1=C2C3=CC=C(CC(CC)CCCC)S3)=CC1=C(C4=CC=C(CC(CC)CCCC)S4)C5=C2C=C(S5)C6=CC=C(C7=C8C(C(C9=C(CC(CC)CCCC)SC(CC(CC)CCCC)=C9C8=O)=O)=C(C%10=CC=C(C)S%10)S7)S6,117,58.5,2,1,1,CB,NA,NA,95,,,
1101,488,2019,11.7,11.7,19.4,0.67,0.895,IT-4F,5.7,4.1,1.6,CCCCCCC(C=C1)=CC=C1C2(C3=CC=C(CCCCCC)C=C3)C4=CC5=C(C(C6=C5SC7=C6SC(/C=C8C(C(C=C(F)C(F)=C9)=C9C\8=C(C#N)\C#N)=O)=C7)(C%10=CC=C(CCCCCC)C=C%10)C%11=CC=C(CCCCCC)C=C%11)C=C4C%12=C2C(SC(/C=C%13C(C(C=C(F)C(F)=C%14)=C%14C\%13=C(C#N)/C#N)=O)=C%15)=C%15S%12,1499.92,PBDB-T-SF,5.4,3.6,1.8,CC(SC1=C2C3=CC(F)=C(SCC(CC)CCCC)S3)=CC1=C(C4=CC(F)=C(SCC(CC)CCCC)S4)C5=C2C=C(C6=CC=C(C7=C8C(C(C9=C(CC(CC)CCCC)SC(CC(CC)CCCC)=C9C8=O)=O)=C(C%10=CC=C(C)S%10)S7)S6)S5,58.194,18.348,3.171680837,1,1,CB,NA,NA,95,,,
1102,489,2019,8.25,8.16,14.59,0.6946,0.8,ITIC-Th,5.66,3.93,1.73,O=C(C(C=CC=C1)=C1C/2=C(C#N)\C#N)C2=C/C3=CC(S4)=C(S3)C5=C4C6=CC(C(C7=C8SC9=C7SC(/C=C%10C(C(C=CC=C%11)=C%11C\%10=C(C#N)\C#N)=O)=C9)(C%12=CC=C(CCCCCC)S%12)C%13=CC=C(CCCCCC)S%13)=C8C=C6C(C%14=CSC(CCCCCC)=C%14)5C%15=CC=C(CCCCCC)S%15,1452.04,PTB7-Th,5.2,3.59,1.61,O=C(OCC(CC)CCCC)C1=C(F)C2=C(C)SC(C3=CC4=C(C(C5=CC=C(CC(CC)CCCC)S5)=C(C=C(C)S6)C6=C4C7=CC=C(CC(CC)CCCC)S7)S3)=C2S1,60,30,2,1,1.5,CB,ODT,100,120,,,
1103,489,2019,11.39,11.39,17.66,0.6305,1.01,ITIC-Th,5.66,3.93,1.73,O=C(C(C=CC=C1)=C1C/2=C(C#N)\C#N)C2=C/C3=CC(S4)=C(S3)C5=C4C6=CC(C(C7=C8SC9=C7SC(/C=C%10C(C(C=CC=C%11)=C%11C\%10=C(C#N)\C#N)=O)=C9)(C%12=CC=C(CCCCCC)S%12)C%13=CC=C(CCCCCC)S%13)=C8C=C6C(C%14=CSC(CCCCCC)=C%14)5C%15=CC=C(CCCCCC)S%15,1452.04,P1,5.6,3.65,1.95,CC(SC1=C2C3=CC=C(CC(CC)CCCC)S3)=CC1=C(C4=CC=C(CC(CC)CCCC)S4)C5=C2C=C(S5)C6=C(F)C(C(OC)=O)=C(C)S6,67.62,32.2,2.1,1,1.5,CB,ODT,100,130,,,
1104,489,2019,9.79,9.63,21.92,0.6047,0.73,IEICO-4F,5.44,4.19,1.25,CCCCCCC(C=C1)=CC=C1C(C2=C3SC(C4=C(OCC(CC)CCCC)C=C(/C=C5C(C(C=C(F)C(F)=C6)=C6C\5=C(C#N)\C#N)=O)S4)=C2)(C7=CC=C(CCCCCC)C=C7)C8=C3C=C(C(C9=C%10SC(C(S%11)=C(C=C%11/C=C%12/C(C(C=C%13F)=C(C%12=O)C=C%13F)=C(C#N)/C#N)OCC(CCCC)CC)=C9)(C%14=CC=C(CCCCCC)C=C%14)C%15=CC=C(CCCCCC)C=C%15)C%10=C8,1808.42,PTB7-Th,5.2,3.59,1.61,O=C(OCC(CC)CCCC)C1=C(F)C2=C(C)SC(C3=CC4=C(C(C5=CC=C(CC(CC)CCCC)S5)=C(C=C(C)S6)C6=C4C7=CC=C(CC(CC)CCCC)S7)S3)=C2S1,60,30,2,1,1.5,TL,ODT,150,110,,,
1105,489,2019,1.31,1.09,4.2,0.367,0.81,IEICO-4F,5.44,4.19,1.25,CCCCCCC(C=C1)=CC=C1C(C2=C3SC(C4=C(OCC(CC)CCCC)C=C(/C=C5C(C(C=C(F)C(F)=C6)=C6C\5=C(C#N)\C#N)=O)S4)=C2)(C7=CC=C(CCCCCC)C=C7)C8=C3C=C(C(C9=C%10SC(C(S%11)=C(C=C%11/C=C%12/C(C(C=C%13F)=C(C%12=O)C=C%13F)=C(C#N)/C#N)OCC(CCCC)CC)=C9)(C%14=CC=C(CCCCCC)C=C%14)C%15=CC=C(CCCCCC)C=C%15)C%10=C8,1808.42,P1,5.6,3.65,1.95,CC(SC1=C2C3=CC=C(CC(CC)CCCC)S3)=CC1=C(C4=CC=C(CC(CC)CCCC)S4)C5=C2C=C(S5)C6=C(F)C(C(OC)=O)=C(C)S6,67.62,32.2,2.1,1,1.5,TL,ODT,150,120,,,
1106,490,2019,6.44,6.3,14.77,0.54,0.81,ITIC,5.51,3.84,1.67,CCCCCCC(C=C1)=CC=C1C2(C3=CC=C(CCCCCC)C=C3)C4=CC5=C(C(C6=C5SC7=C6SC(/C=C8C(C(C=CC=C9)=C9C\8=C(C#N)\C#N)=O)=C7)(C%10=CC=C(CCCCCC)C=C%10)C%11=CC=C(CCCCCC)C=C%11)C=C4C%12=C2C(SC(/C=C%13C(C(C=CC=C%14)=C%14C\%13=C(C#N)/C#N)=O)=C%15)=C%15S%12,1427.96,PTB7-Th,5.23,3.64,1.59,O=C(OCC(CC)CCCC)C1=C(F)C2=C(C)SC(C3=CC4=C(C(C5=CC=C(CC(CC)CCCC)S5)=C(C=C(C)S6)C6=C4C7=CC=C(CC(CC)CCCC)S7)S3)=C2S1,124,72.9,1.700960219,1,1.3,CB,NA,NA,95,,,
1107,491,2019,2.38,2.23,5.81,0.376,1.01,HCN-C8,5.63,3.54,2.09,O=C(C(C=CC=C1)=C1C/2=C(C#N)/C#N)C2=C/C3=CC(C(C4=CC=C(CCCCCC)C=C4)(C5=CC=C(CCCCCC)C=C5)C6=C7C=C(N8CCCCCCCC)C(C(C8=C9)=CC%10=C9C(SC(/C=C%11/C(C%12=C(C%11=O)C=CC=C%12)=C(C#N)\C#N)=C%13)=C%13C%10(C%14=CC=C(CCCCCC)C=C%14)C%15=CC=C(CCCCCC)C=C%15)=C6)=C7S3,1517.11,J71,5.35,3.4,1.95,CCC[Si](CCC)(C1=CC=C(C(C2=C3C=C(C4=CC=C(C5=C(F)C(F)=C(C6=CC=C(C)S6)C7=NN(CC(CCCCCC)CCCCCCCC)N=C57)S4)S2)=C8C(SC(C)=C8)=C3C9=CC=C([Si](CCC)(CCC)CCC)S9)S1)CCC,47,23.5,2,1,1,CF,NA,160,116,,,
1108,491,2019,5.51,5.24,12.08,0.421,1.03,HCN-C16,5.63,3.57,2.06,O=C(C(C=CC=C1)=C1C/2=C(C#N)/C#N)C2=C/C3=CC(C(C4=CC=C(CCCCCC)C=C4)(C5=CC=C(CCCCCC)C=C5)C6=C7C=C(N8CC(CCCCCC)CCCCCCCC)C(C(C8=C9)=CC%10=C9C(SC(/C=C%11/C(C%12=C(C%11=O)C=CC=C%12)=C(C#N)\C#N)=C%13)=C%13C%10(C%14=CC=C(CCCCCC)C=C%14)C%15=CC=C(CCCCCC)C=C%15)=C6)=C7S3,1629.32,J71,5.35,3.4,1.95,CCC[Si](CCC)(C1=CC=C(C(C2=C3C=C(C4=CC=C(C5=C(F)C(F)=C(C6=CC=C(C)S6)C7=NN(CC(CCCCCC)CCCCCCCC)N=C57)S4)S2)=C8C(SC(C)=C8)=C3C9=CC=C([Si](CCC)(CCC)CCC)S9)S1)CCC,47,23.5,2,1,1,CF,NA,160,116,,,
1109,491,2019,11.18,11.1,18.64,0.662,0.9,H2FCN-C16,5.95,3.99,1.96,O=C(C(C=C(F)C(F)=C1)=C1C/2=C(C#N)/C#N)C2=C/C3=CC(C(C4=CC=C(CCCCCC)C=C4)(C5=CC=C(CCCCCC)C=C5)C6=C7C=C(N8CC(CCCCCC)CCCCCCCC)C(C(C8=C9)=CC%10=C9C(SC(/C=C%11/C(C%12=C(C%11=O)C=C(F)C(F)=C%12)=C(C#N)\C#N)=C%13)=C%13C%10(C%14=CC=C(CCCCCC)C=C%14)C%15=CC=C(CCCCCC)C=C%15)=C6)=C7S3,1701.28,J71,5.35,3.4,1.95,CCC[Si](CCC)(C1=CC=C(C(C2=C3C=C(C4=CC=C(C5=C(F)C(F)=C(C6=CC=C(C)S6)C7=NN(CC(CCCCCC)CCCCCCCC)N=C57)S4)S2)=C8C(SC(C)=C8)=C3C9=CC=C([Si](CCC)(CCC)CCC)S9)S1)CCC,47,23.5,2,1,1,CF,NA,160,116,,,