ID,Ref,year,PCE_max(%),PCE_ave(%),Jsc(mA/cm2),FF,Voc(V),Nickname(n),-HOMO_n(eV),-LUMO_n(eV),Eg_n(eV),n(SMILES),M (g/mol),Nickname(p),-HOMO_p(eV),-LUMO_p(eV),Eg_p(eV),p(SMILES),Mw (kg/mol),Mn(kg/mol),PDI,p/n ratio (p),p/n ratio (n),Solvent,Additive,TA (oC),thick (nm),,Journal,DOI
892,407,2019,7.06,7.06,15.44,0.525,0.87,IT-M,5.58,3.98,1.6,CCCCCCC(C=C1)=CC=C1C2(C3=CC=C(CCCCCC)C=C3)C4=CC5=C(C(C6=C5SC7=C6SC(/C=C8C(C(C=CC(C)=C9)=C9C\8=C(C#N)\C#N)=O)=C7)(C%10=CC=C(CCCCCC)C=C%10)C%11=CC=C(CCCCCC)C=C%11)C=C4C%12=C2C(SC(/C=C%13C(C(C=CC(C)=C%14)=C%14C\%13=C(C#N)/C#N)=O)=C%15)=C%15S%12,1456.01,PBnDT-FTAZNO[P2],5.42,3.43,1.99,CC(SC1=C2CCC(CCCCCC)CCCC)=CC1=C(CCC(CCCCCC)CCCC)C3=C2C=C(C4=CC=C(C5=C(F)C(F)=C(C6=CC=C(C)S6)C7=NN(CCOCCOCCOCCOC)N=C75)S4)S3,410.38,120.7,3.4,1,1,TL,NA,150,85,,,
893,407,2019,3.57,3.57,11.58,0.434,0.709,IT-M,5.58,3.98,1.6,CCCCCCC(C=C1)=CC=C1C2(C3=CC=C(CCCCCC)C=C3)C4=CC5=C(C(C6=C5SC7=C6SC(/C=C8C(C(C=CC(C)=C9)=C9C\8=C(C#N)\C#N)=O)=C7)(C%10=CC=C(CCCCCC)C=C%10)C%11=CC=C(CCCCCC)C=C%11)C=C4C%12=C2C(SC(/C=C%13C(C(C=CC(C)=C%14)=C%14C\%13=C(C#N)/C#N)=O)=C%15)=C%15S%12,1456.01,PBnDT-OTAZ[P3],5.28,3.22,2.06,CC(SC1=C2CCC(CCCCCC)CCCC)=CC1=C(CCC(CCCCCC)CCCC)C3=C2C=C(C4=CC=C(C5=C(OCCOCCOCCOC)C(OCCOCCOCCOC)=C(C6=CC=C(C)S6)C7=NN(CC(CCCC)CCCCCC)N=C75)S4)S3,193.72,66.8,2.9,1,1,TL,NA,150,85,,,
894,407,2019,1.23,1.23,9.51,0.336,0.382,IT-M,5.58,3.98,1.6,CCCCCCC(C=C1)=CC=C1C2(C3=CC=C(CCCCCC)C=C3)C4=CC5=C(C(C6=C5SC7=C6SC(/C=C8C(C(C=CC(C)=C9)=C9C\8=C(C#N)\C#N)=O)=C7)(C%10=CC=C(CCCCCC)C=C%10)C%11=CC=C(CCCCCC)C=C%11)C=C4C%12=C2C(SC(/C=C%13C(C(C=CC(C)=C%14)=C%14C\%13=C(C#N)/C#N)=O)=C%15)=C%15S%12,1456.01,PBoDT-OTAZ[P6],5.18,3.17,2.01,CC(SC1=C2OCCOCCOCCOC)=CC1=C(OCCOCCOCCOC)C3=C2C=C(C4=CC=C(C5=C(OCCOCCOCCOC)C(OCCOCCOCCOC)=C(C6=CC=C(C)S6)C7=NN(CC(CCCC)CCCCCC)N=C75)S4)S3,48.93,23.3,2.1,1,1,TL,NA,150,85,,,
895,408,2019,5.74,5.21,8.61,0.59,1.03,tPDI2N-EH,5.9,3.7,2.2,O=C(N(C(CC)CC)C1=O)C2=CC=C3C4=C(C5=C6C=C(C(N(C(CC)CC)C7=O)=O)C8=C7C=C(C9=CC%10=C%11C(C%12=C(N%13CC(CC)CCCC)C=C%11C(N(C(CC)CC)C%10=O)=O)=C9C%14=CC=C(C(N(C(CC)CC)C%15=O)=O)C%16=C%15C=C%13C%12=C%14%16)C3=C58)C(N6CC(CCCC)CC)=CC1=C42,1309.66,QX1,5.4,3.1,2.3,CC(SC1=C2C3=CC=C(CC(CC)CCCC)S3)=CC1=C(C4=CC=C(CC(CC)CCCC)S4)C5=C2C=C(C6=CC=C(C7=C(F)C(F)=C(C8=CC=C(C)S8)C9=C7N=C(C%10=CC(F)=C(CC(CC)CCCC)S%10)C(C%11=CC(F)=C(CC(CC)CCCC)S%11)=N9)S6)S5,83.84,52.4,1.6,1,1,OX,DPE,180,,,,
896,408,2019,4.68,4.77,8.33,0.55,1.03,tPDI2N-EH,5.9,3.7,2.2,O=C(N(C(CC)CC)C1=O)C2=CC=C3C4=C(C5=C6C=C(C(N(C(CC)CC)C7=O)=O)C8=C7C=C(C9=CC%10=C%11C(C%12=C(N%13CC(CC)CCCC)C=C%11C(N(C(CC)CC)C%10=O)=O)=C9C%14=CC=C(C(N(C(CC)CC)C%15=O)=O)C%16=C%15C=C%13C%12=C%14%16)C3=C58)C(N6CC(CCCC)CC)=CC1=C42,1309.66,QX2,5.4,3.1,2.3,CC(SC1=C2C3=CC=C(CC(CC)CCCC)S3)=CC1=C(C4=CC=C(CC(CC)CCCC)S4)C5=C2C=C(C6=CC=C(C7=C(F)C(F)=C(C8=CC=C(C)S8)C9=C7N=C(C%10=C(F)C(F)=C(CC(CC)CCCC)S%10)C(C%11=C(F)C(F)=C(CC(CC)CCCC)S%11)=N9)S6)S5,83.84,52.4,1.6,1,1,OX,DPE,180,,,,
897,408,2019,4.47,3.93,6.96,0.54,1.05,tPDI2N-EH,5.9,3.7,2.2,O=C(N(C(CC)CC)C1=O)C2=CC=C3C4=C(C5=C6C=C(C(N(C(CC)CC)C7=O)=O)C8=C7C=C(C9=CC%10=C%11C(C%12=C(N%13CC(CC)CCCC)C=C%11C(N(C(CC)CC)C%10=O)=O)=C9C%14=CC=C(C(N(C(CC)CC)C%15=O)=O)C%16=C%15C=C%13C%12=C%14%16)C3=C58)C(N6CC(CCCC)CC)=CC1=C42,1309.66,QX3,5.4,3.1,2.3,CC(SC1=C2C3=CC=C(CC(CC)CCCC)S3)=CC1=C(C4=CC=C(CC(CC)CCCC)S4)C5=C2C=C(C6=CC=C(C7=C(F)C(F)=C(C8=CC=C(C)S8)C9=C7N=C(C%10=CC(F)=C(CC(CC)CCCC)C(F)=C%10)C(C%11=CC(F)=C(CC(CC)CCCC)C(F)=C%11)=N9)S6)S5,83.84,52.4,1.6,1,1,OX,DPE,180,,,,
898,408,2019,5.74,5.38,9.02,0.58,1.04,tPDI2N-EH,5.9,3.7,2.2,O=C(N(C(CC)CC)C1=O)C2=CC=C3C4=C(C5=C6C=C(C(N(C(CC)CC)C7=O)=O)C8=C7C=C(C9=CC%10=C%11C(C%12=C(N%13CC(CC)CCCC)C=C%11C(N(C(CC)CC)C%10=O)=O)=C9C%14=CC=C(C(N(C(CC)CC)C%15=O)=O)C%16=C%15C=C%13C%12=C%14%16)C3=C58)C(N6CC(CCCC)CC)=CC1=C42,1309.66,QX4,5.4,3.1,2.3,CC(SC1=C2C3=CC=C(CC(CC)CCCC)S3)=CC1=C(C4=CC=C(CC(CC)CCCC)S4)C5=C2C=C(C6=CC=C(C7=C(F)C(F)=C(C8=CC=C(C)S8)C9=C7N=C(C%10=CC(F)=C(OCC(CC)CCCC)C(F)=C%10)C(C%11=CC(F)=C(OCC(CC)CCCC)C(F)=C%11)=N9)S6)S5,83.84,52.4,1.6,1,1,OX,DPE,180,,,,
899,409,2019,10.96,10.45,19.18,0.704,0.81,IT-4F,5.49,3.89,1.6,CCCCCCC(C=C1)=CC=C1C2(C3=CC=C(CCCCCC)C=C3)C4=CC5=C(C(C6=C5SC7=C6SC(/C=C8C(C(C=C(F)C(F)=C9)=C9C\8=C(C#N)\C#N)=O)=C7)(C%10=CC=C(CCCCCC)C=C%10)C%11=CC=C(CCCCCC)C=C%11)C=C4C%12=C2C(SC(/C=C%13C(C(C=C(F)C(F)=C%14)=C%14C\%13=C(C#N)/C#N)=O)=C%15)=C%15S%12,1499.92,PDTPO-BDTT,5.2,2.93,2.27,CC(SC1=C2C3=CC=C(CC(CC)CCCC)S3)=CC1=C(C4=CC=C(CC(CC)CCCC)S4)C5=C2C=C(C6=CC7=C(C(SC(C)=C8)=C8C(N7CC(CCCCCCCC)CCCCCCCCCC)=O)S6)S5,50,25,2,1,1.2,CB,DIO,200,85,,,
900,409,2019,10.04,9.66,19.3,0.628,0.83,NNFA-4F,5.29,3.9,1.39,O=C1C(C=C(F)C(F)=C2)=C2C(/C1=C/C3=CC(SC4=C5C(C6=CC=C(CCCCCC)C=C6)(C7=CC=C(CCCCCC)C=C7)C8=C4SC9=C8C=C(SC%10=C%11C(C%12=CC=C(CCCCCC)C=C%12)(C%13=CC=C(CCCCCC)C=C%13)C%14=C%10SC%15=C%14SC(/C=C%16/C(C%17=C(C=C(F)C(F)=C%17)C%16=O)=C(C#N)\C#N)=C%15)C%11=C9)=C5S3)=C(C#N)/C#N,1612.08,PDTPO-BDTT,5.2,2.93,2.27,CC(SC1=C2C3=CC=C(CC(CC)CCCC)S3)=CC1=C(C4=CC=C(CC(CC)CCCC)S4)C5=C2C=C(C6=CC7=C(C(SC(C)=C8)=C8C(N7CC(CCCCCCCC)CCCCCCCCCC)=O)S6)S5,50,25,2,1,1.4,CF,NA,NA,113,,,
901,409,2019,6.46,6.12,16.96,0.468,0.81,COi8DFIC,5.26,3.9,1.36,CCCCCCC(C=C1)=CC=C1C2(C(C(SC(/C=C3/C(C(C=C4F)=C(C3=O)C=C4F)=C(C#N)\C#N)=C5)=C5S6)=C6C(S7)=C(O2)C8=C7C9=C(S8)C%10=C(C(C%11=CC=C(CCCCCC)C=C%11)(O9)C%12=CC=C(CCCCCC)C=C%12)C(SC(/C=C%13C(C(C=C(F)C(F)=C%14)=C%14C\%13=C(C#N)\C#N)=O)=C%15)=C%15S%10)C%16=CC=C(CCCCCC)C=C%16,1594.02,PDTPO-BDTT,5.2,2.93,2.27,CC(SC1=C2C3=CC=C(CC(CC)CCCC)S3)=CC1=C(C4=CC=C(CC(CC)CCCC)S4)C5=C2C=C(C6=CC7=C(C(SC(C)=C8)=C8C(N7CC(CCCCCCCC)CCCCCCCCCC)=O)S6)S5,50,25,2,1,1.8,CB,DIO,NA,88,,,
902,410,2019,11.92,11.75,20.33,0.696,0.84,IDTCN-C,5.59,3.92,1.67,CCCCCCC(C=C1)=CC=C1C2(C3=CC=C(CCCCCC)C=C3)C4=C(C5=CC(C6(C7=CC=C(CCCCCC)C=C7)C8=CC=C(CCCCCC)C=C8)=C(C9=C6C=C(C%10=CC(CCCCCC)=C(/C=C%11C(C(C=CC=C%12)=C%12C\%11=C(C#N)/C#N)=O)S%10)S9)C=C52)SC(C%13=CC(CCCCCC)=C(/C=C%14C(C(C=CC=C%15)=C%15C\%14=C(C#N)/C#N)=O)S%13)=C4,1648.36,PBDB-T,5.23,3.42,1.81,CC(SC1=C2C3=CC=C(CC(CC)CCCC)S3)=CC1=C(C4=CC=C(CC(CC)CCCC)S4)C5=C2C=C(S5)C6=CC=C(C7=C8C(C(C9=C(CC(CC)CCCC)SC(CC(CC)CCCC)=C9C8=O)=O)=C(C%10=CC=C(C)S%10)S7)S6,117,58.5,2,1,1,DCB,NA,NA,,,,
903,410,2019,13.28,12.91,19.96,0.732,0.91,IDTCN-O,5.54,3.8,1.74,CCCCCCC(C=C1)=CC=C1C2(C3=CC=C(CCCCCC)C=C3)C4=C(C5=CC(C6(C7=CC=C(CCCCCC)C=C7)C8=CC=C(CCCCCC)C=C8)=C(C9=C6C=C(C%10=CC(OCCCCCC)=C(/C=C%11C(C(C=CC=C%12)=C%12C\%11=C(C#N)/C#N)=O)S%10)S9)C=C52)SC(C%13=CC(OCCCCCC)=C(/C=C%14C(C(C=CC=C%15)=C%15C\%14=C(C#N)/C#N)=O)S%13)=C4,1680.35,PBDB-T,5.23,3.42,1.81,CC(SC1=C2C3=CC=C(CC(CC)CCCC)S3)=CC1=C(C4=CC=C(CC(CC)CCCC)S4)C5=C2C=C(S5)C6=CC=C(C7=C8C(C(C9=C(CC(CC)CCCC)SC(CC(CC)CCCC)=C9C8=O)=O)=C(C%10=CC=C(C)S%10)S7)S6,117,58.5,2,1,1,DCB,NA,NA,,,,
904,410,2019,10.6,10.34,19.04,0.657,0.85,IDTCN-S,5.57,3.9,1.67,CCCCCCC(C=C1)=CC=C1C2(C3=CC=C(CCCCCC)C=C3)C4=C(C5=CC(C6(C7=CC=C(CCCCCC)C=C7)C8=CC=C(CCCCCC)C=C8)=C(C9=C6C=C(C%10=CC(SCCCCCC)=C(/C=C%11C(C(C=CC=C%12)=C%12C\%11=C(C#N)/C#N)=O)S%10)S9)C=C52)SC(C%13=CC(SCCCCCC)=C(/C=C%14C(C(C=CC=C%15)=C%15C\%14=C(C#N)/C#N)=O)S%13)=C4,1712.48,PBDB-T,5.23,3.42,1.81,CC(SC1=C2C3=CC=C(CC(CC)CCCC)S3)=CC1=C(C4=CC=C(CC(CC)CCCC)S4)C5=C2C=C(S5)C6=CC=C(C7=C8C(C(C9=C(CC(CC)CCCC)SC(CC(CC)CCCC)=C9C8=O)=O)=C(C%10=CC=C(C)S%10)S7)S6,117,58.5,2,1,1,DCB,NA,NA,,,,
905,411,2019,12.88,12.64,20.6,0.7504,0.833,IT-4F,5.71,4.15,1.56,CCCCCCC(C=C1)=CC=C1C2(C3=CC=C(CCCCCC)C=C3)C4=CC5=C(C(C6=C5SC7=C6SC(/C=C8C(C(C=C(F)C(F)=C9)=C9C\8=C(C#N)\C#N)=O)=C7)(C%10=CC=C(CCCCCC)C=C%10)C%11=CC=C(CCCCCC)C=C%11)C=C4C%12=C2C(SC(/C=C%13C(C(C=C(F)C(F)=C%14)=C%14C\%13=C(C#N)/C#N)=O)=C%15)=C%15S%12,1499.92,PM6,5.54,3.65,1.89,CC(SC1=C2C3=CC(F)=C(CC(CC)CCCC)S3)=CC1=C(C4=CC(F)=C(CC(CC)CCCC)S4)C5=C2C=C(S5)C6=CC=C(C7=C8C(C(C9=C(CC(CC)CCCC)SC(CC(CC)CCCC)=C9C8=O)=O)=C(C%10=CC=C(C)S%10)S7)S6,38.6,19.3,2,1,1,CB,DIO,90,,,,
906,411,2019,15.45,15.2,25.05,0.7195,0.857,Y6,5.62,4.11,1.51,O=C(C(C=C(F)C(F)=C1)=C1C/2=C(C#N)/C#N)C2=C/C3=C(CCCCCCCCCCC)C(SC4=C5N(CC(CC)CCCC)C6=C4C7=NSN=C7C8=C6N(CC(CC)CCCC)C9=C8SC%10=C9SC(/C=C%11/C(C%12=C(C%11=O)C=C(F)C(F)=C%12)=C(C#N)\C#N)=C%10CCCCCCCCCCC)=C5S3,1451.94,PM6,5.54,3.65,1.89,CC(SC1=C2C3=CC(F)=C(CC(CC)CCCC)S3)=CC1=C(C4=CC(F)=C(CC(CC)CCCC)S4)C5=C2C=C(S5)C6=CC=C(C7=C8C(C(C9=C(CC(CC)CCCC)SC(CC(CC)CCCC)=C9C8=O)=O)=C(C%10=CC=C(C)S%10)S7)S6,38.6,19.3,2,1,1,CB,DIO,90,,,,
907,413,2019,15.75,15.7,24.89,0.7437,0.845,Y6,5.7,4.1,1.6,O=C(C(C=C(F)C(F)=C1)=C1C/2=C(C#N)/C#N)C2=C/C3=C(CCCCCCCCCCC)C(SC4=C5N(CC(CC)CCCC)C6=C4C7=NSN=C7C8=C6N(CC(CC)CCCC)C9=C8SC%10=C9SC(/C=C%11/C(C%12=C(C%11=O)C=C(F)C(F)=C%12)=C(C#N)\C#N)=C%10CCCCCCCCCCC)=C5S3,1451.94,PM6,5.5,3.56,1.94,CC(SC1=C2C3=CC(F)=C(CC(CC)CCCC)S3)=CC1=C(C4=CC(F)=C(CC(CC)CCCC)S4)C5=C2C=C(S5)C6=CC=C(C7=C8C(C(C9=C(CC(CC)CCCC)SC(CC(CC)CCCC)=C9C8=O)=O)=C(C%10=CC=C(C)S%10)S7)S6,38.6,19.3,2,1,1.2,CF,CN,110,,,,
908,414,2019,15.3,14.9,24.8,0.741,0.834,Y6,5.65,4.1,1.55,O=C(C(C=C(F)C(F)=C1)=C1C/2=C(C#N)/C#N)C2=C/C3=C(CCCCCCCCCCC)C(SC4=C5N(CC(CC)CCCC)C6=C4C7=NSN=C7C8=C6N(CC(CC)CCCC)C9=C8SC%10=C9SC(/C=C%11/C(C%12=C(C%11=O)C=C(F)C(F)=C%12)=C(C#N)\C#N)=C%10CCCCCCCCCCC)=C5S3,1451.94,PBDB-TF,5.54,3.65,1.89,CC(SC1=C2C3=CC(F)=C(CC(CC)CCCC)S3)=CC1=C(C4=CC(F)=C(CC(CC)CCCC)S4)C5=C2C=C(S5)C6=CC=C(C7=C8C(C(C9=C(CC(CC)CCCC)SC(CC(CC)CCCC)=C9C8=O)=O)=C(C%10=CC=C(C)S%10)S7)S6,38.6,19.3,2,1,1.4,CF,CN,100,100,,,
909,415,2019,15.3,14.9,24.6,0.74,0.841,BTP-4F-8,5.68,4.06,1.62,O=C(C(C=C(F)C(F)=C1)=C1C/2=C(C#N)/C#N)C2=C/C3=C(CCCCCCCCCCC)C(SC4=C5N(CC(CC)CCCC)C6=C4C7=NSN=C7C8=C6N(CC(CC)CCCC)C9=C8SC%10=C9SC(/C=C%11/C(C%12=C(C%11=O)C=C(F)C(F)=C%12)=C(C#N)\C#N)=C%10CCCCCCCCCCC)=C5S3,1451.94,PBDB-TF,5.45,3.64,1.81,CC(SC1=C2C3=CC(F)=C(CC(CC)CCCC)S3)=CC1=C(C4=CC(F)=C(CC(CC)CCCC)S4)C5=C2C=C(S5)C6=CC=C(C7=C8C(C(C9=C(CC(CC)CCCC)SC(CC(CC)CCCC)=C9C8=O)=O)=C(C%10=CC=C(C)S%10)S7)S6,73.75,29.5,2.5,1,1.2,CF,CN,100,,,,
910,415,2019,16.4,15.9,25.3,0.76,0.855,BTP-4F-12,,,1.62,O=C(C(C=C(F)C(F)=C1)=C1C/2=C(C#N)/C#N)C2=C/C3=C(CCCCCCCCCCC)C(SC4=C5N(CC(CCCC)CCCCCC)C6=C4C7=NSN=C7C8=C6N(CC(CCCC)CCCCCC)C9=C8SC%10=C9SC(/C=C%11/C(C%12=C(C%11=O)C=C(F)C(F)=C%12)=C(C#N)\C#N)=C%10CCCCCCCCCCC)=C5S3,1564.15,PBDB-TF,5.45,3.64,1.81,CC(SC1=C2C3=CC(F)=C(CC(CC)CCCC)S3)=CC1=C(C4=CC(F)=C(CC(CC)CCCC)S4)C5=C2C=C(S5)C6=CC=C(C7=C8C(C(C9=C(CC(CC)CCCC)SC(CC(CC)CCCC)=C9C8=O)=O)=C(C%10=CC=C(C)S%10)S7)S6,73.75,29.5,2.5,1,1.2,CF,DIO,100,,,,
911,416,2019,9.9,9.5,15.5,0.6,1.02,O-IDTBR,5.56,3.92,1.64,O=C(/C(S1)=C/C(C2=NSN=C32)=CC=C3C(S4)=CC5=C4C6=CC(C(CCCCCCCC)(CCCCCCCC)C7=C8SC(C9=CC=C(/C=C%10SC(N(CC)C\%10=O)=S)C%11=NSN=C9%11)=C7)=C8C=C6C5(CCCCCCCC)CCCCCCCC)N(CC)C1=S,1326.02,PTB7-Th,5.22,3.63,1.59,O=C(OCC(CC)CCCC)C1=C(F)C2=C(C)SC(C3=CC4=C(C(C5=CC=C(CC(CC)CCCC)S5)=C(C=C(C)S6)C6=C4C7=CC=C(CC(CC)CCCC)S7)S3)=C2S1,124,72.9,1.700960219,1,2.5,CB,NA,130,,,,
912,416,2019,11.1,10.5,19.8,0.73,0.72,O-IDTBCN,5.7,4.18,1.52,CCCCCCCCC1(CCCCCCCC)C2=CC3=C(C(CCCCCCCC)(CCCCCCCC)C4=C3SC(C5=CC=C(/C=C(C#N)\C#N)C6=NSN=C56)=C4)C=C2C7=C1C=C(C8=CC=C(/C=C(C#N)\C#N)C9=NSN=C89)S7,1135.67,PTB7-Th,5.22,3.63,1.59,O=C(OCC(CC)CCCC)C1=C(F)C2=C(C)SC(C3=CC4=C(C(C5=CC=C(CC(CC)CCCC)S5)=C(C=C(C)S6)C6=C4C7=CC=C(CC(CC)CCCC)S7)S3)=C2S1,124,72.9,1.700960219,1,2.5,CB,NA,130,,,,
913,417,2019,3.7,3.52,7.4,0.592,0.844,ITIC,5.62,3.96,1.66,CCCCCCC(C=C1)=CC=C1C2(C3=CC=C(CCCCCC)C=C3)C4=CC5=C(C(C6=C5SC7=C6SC(/C=C8C(C(C=CC=C9)=C9C\8=C(C#N)\C#N)=O)=C7)(C%10=CC=C(CCCCCC)C=C%10)C%11=CC=C(CCCCCC)C=C%11)C=C4C%12=C2C(SC(/C=C%13C(C(C=CC=C%14)=C%14C\%13=C(C#N)/C#N)=O)=C%15)=C%15S%12,1427.96,PBDTT-DPP,5.22,3.65,1.57,CC1=CC2=C(S1)C(C(S3)=CC=C3CC(CCCC)CC)=C4C(SC(C(S5)=CC=C5C(N6CC(CCCCCC)CCCC)=C7C(C6=O)=C(C8=CC=C(C)S8)N(CC(CCCC)CCCCCC)C7=O)=C4)=C2C(S9)=CC=C9CC(CCCC)CC,280,101,2.772277228,1,1.5,CB,CN,NA,100,,,
914,417,2019,8.14,8,18.5,0.648,0.679,IEICO-4F,5.43,4.19,1.24,CCCCCCC(C=C1)=CC=C1C(C2=C3SC(C4=C(OCC(CC)CCCC)C=C(/C=C5C(C(C=C(F)C(F)=C6)=C6C\5=C(C#N)\C#N)=O)S4)=C2)(C7=CC=C(CCCCCC)C=C7)C8=C3C=C(C(C9=C%10SC(C(S%11)=C(C=C%11/C=C%12/C(C(C=C%13F)=C(C%12=O)C=C%13F)=C(C#N)/C#N)OCC(CCCC)CC)=C9)(C%14=CC=C(CCCCCC)C=C%14)C%15=CC=C(CCCCCC)C=C%15)C%10=C8,1808.42,PBDTT-DPP,5.22,3.65,1.57,CC1=CC2=C(S1)C(C(S3)=CC=C3CC(CCCC)CC)=C4C(SC(C(S5)=CC=C5C(N6CC(CCCCCC)CCCC)=C7C(C6=O)=C(C8=CC=C(C)S8)N(CC(CCCC)CCCCCC)C7=O)=C4)=C2C(S9)=CC=C9CC(CCCC)CC,280,101,2.772277228,1,1.5,CB,CN,NA,100,,,
915,418,2019,12.1,11.8,21.3,0.669,0.85,m-INPOIC,5.41,3.97,1.44,O=C1C(C=C(F)C(F)=C2)=C2C(/C1=C/C3=CC(N(CCCCCCCC)C4=C5SC6=C4C(C7=CC(OCCCCCC)=CC=C7)(C8=CC=CC(OCCCCCC)=C8)C9=C6C=C(C(C%10=CC(OCCCCCC)=CC=C%10)(C%11=CC=CC(OCCCCCC)=C%11)C%12=C%13SC%14=C%12N(CCCCCCCC)C%15=C%14SC(/C=C%16/C(C%17=C(C=C(F)C(F)=C%17)C%16=O)=C(C#N)\C#N)=C%15)C%13=C9)=C5S3)=C(C#N)/C#N,1866.42,PBDB-T,5.33,3.29,2.04,CC(SC1=C2C3=CC=C(CC(CC)CCCC)S3)=CC1=C(C4=CC=C(CC(CC)CCCC)S4)C5=C2C=C(S5)C6=CC=C(C7=C8C(C(C9=C(CC(CC)CCCC)SC(CC(CC)CCCC)=C9C8=O)=O)=C(C%10=CC=C(C)S%10)S7)S6,117,58.5,2,1,1,CB,NA,NA,100,,,
916,418,2019,10.6,10.4,19,0.661,0.846,p-INPOIC,5.38,4,1.38,O=C1C(C=C(F)C(F)=C2)=C2C(/C1=C/C3=CC(N(CCCCCCCC)C4=C5SC6=C4C(C7=CC=C(OCCCCCC)C=C7)(C8=CC=C(OCCCCCC)C=C8)C9=C6C=C(C(C%10=CC=C(OCCCCCC)C=C%10)(C%11=CC=C(OCCCCCC)C=C%11)C%12=C%13SC%14=C%12N(CCCCCCCC)C%15=C%14SC(/C=C%16/C(C%17=C(C=C(F)C(F)=C%17)C%16=O)=C(C#N)\C#N)=C%15)C%13=C9)=C5S3)=C(C#N)/C#N,1866.42,PBDB-T,5.33,3.29,2.04,CC(SC1=C2C3=CC=C(CC(CC)CCCC)S3)=CC1=C(C4=CC=C(CC(CC)CCCC)S4)C5=C2C=C(S5)C6=CC=C(C7=C8C(C(C9=C(CC(CC)CCCC)SC(CC(CC)CCCC)=C9C8=O)=O)=C(C%10=CC=C(C)S%10)S7)S6,117,58.5,2,1,1,CB,NA,NA,104,,,
917,418,2019,9.71,9.64,18.4,0.632,0.835,INPIC-4F,5.42,3.94,1.48,O=C1C(C=C(F)C(F)=C2)=C2C(/C1=C/C3=CC(N(CCCCCCCC)C4=C5SC6=C4C(C7=CC=C(CCCCCC)C=C7)(C8=CC=C(CCCCCC)C=C8)C9=C6C=C(C(C%10=CC=C(CCCCCC)C=C%10)(C%11=CC=C(CCCCCC)C=C%11)C%12=C%13SC%14=C%12N(CCCCCCCC)C%15=C%14SC(/C=C%16/C(C%17=C(C=C(F)C(F)=C%17)C%16=O)=C(C#N)\C#N)=C%15)C%13=C9)=C5S3)=C(C#N)/C#N,1802.42,PBDB-T,5.33,3.29,2.04,CC(SC1=C2C3=CC=C(CC(CC)CCCC)S3)=CC1=C(C4=CC=C(CC(CC)CCCC)S4)C5=C2C=C(S5)C6=CC=C(C7=C8C(C(C9=C(CC(CC)CCCC)SC(CC(CC)CCCC)=C9C8=O)=O)=C(C%10=CC=C(C)S%10)S7)S6,117,58.5,2,1,1,CB,NA,NA,101,,,
918,419,2019,10.22,9.56,15.17,0.751,0.89,LA1,5.7,3.93,1.77,O=C1C2=C(C(/C1=C/C3=CC4=C(C5=CC(C6(CCCCC7=CC=CC=C7)CCCCC8=CC=CC=C8)=C(C9=C6C=C(/C=C%10/C(C%11=C(C%10=O)C=CC=C%11)=C(C#N)/C#N)S9)C=C5C4(CCCCC%12=CC=CC=C%12)CCCCC%13=CC=CC=C%13)S3)=C(C#N)\C#N)C=CC=C2,1203.58,PBTA-PS,5.34,3.4,1.94,CC(S1)=CC=C1C(C2=NN(CC(CCCCCCCC)CCCCCC)N=C23)=C(F)C(F)=C3C4=CC=C(C5=CC6=C(C(C7=CC=C(SCC(CCCCCC)CCCCCCCC)S7)=C8C=C(SC8=C6C9=CC=C(SCC(CCCCCC)CCCCCCCC)S9)C)S5)S4,50,25,2,1,1,CB,DPE,NA,,,,
919,419,2019,8.15,7.84,15.47,0.6232,0.84,6TIC,5.45,3.94,1.51,O=C1C2=C(C(/C1=C/C3=CC(SC(C4=C5C(S6)=C(S4)C7=C6C(SC8=C9SC(/C=C%10/C(C%11=C(C%10=O)C=CC=C%11)=C(C#N)\C#N)=C8)=C9C(C(C=C%12)=CC=C%12CCCCCC)7C(C=C%13)=CC=C%13CCCCCC)=C%14C5(C(C=C%15)=CC=C%15CCCCCC)C(C=C%16)=CC=C%16CCCCCC)=C%14S3)=C(C#N)\C#N)C=CC=C2,1490.06,PBTA-PS,5.34,3.4,1.94,CC(S1)=CC=C1C(C2=NN(CC(CCCCCCCC)CCCCCC)N=C23)=C(F)C(F)=C3C4=CC=C(C5=CC6=C(C(C7=CC=C(SCC(CCCCCC)CCCCCCCC)S7)=C8C=C(SC8=C6C9=CC=C(SCC(CCCCCC)CCCCCCCC)S9)C)S5)S4,50,25,2,1,1,CB,DPE,NA,,,,
920,420,2019,11.5,11,24.9,0.56,0.78,CDTTIC,5.62,3.98,1.64,CCCCCCCCC(C1=C2SC3=C1SC(/C=C4C(C(C=CC=C5)=C5C\4=C(C#N)\C#N)=O)=C3)(CCCCCCCC)C6=C2SC7=C6SC(/C=C8/C(C9=C(C8=O)C=CC=C9)=C(C#N)/C#N)=C7,923.24,PFBDB-T,5.47,3.46,2.01,CC(SC1=C2C3=CC=C(CC(CC)CCCC)S3)=CC1=C(C4=CC=C(CC(CC)CCCC)S4)C5=C2C=C(C6=C(F)C=C(C7=C8C(C(C9=C(CC(CC)CCCC)SC(CC(CC)CCCC)=C9C8=O)=O)=C(C%10=CC(F)=C(C)S%10)S7)S6)S5,67.6,26,2.6,1,1,CB,DIO,NA,,,,
921,421,2019,2.38,2.23,6.24,0.378,1.01,HCN-C8,5.63,3.54,2.09,CCCCCCC(C=C1)=CC=C1C2(C3=CC=C(CCCCCC)C=C3)C4=C(C=C(N5CCCCCCCC)C(C6=CC(C(C(C=C7)=CC=C7CCCCCC)(C8=C9SC(/C=C%10/C(C%11=C(C%10=O)C=CC=C%11)=C(C#N)/C#N)=C8)C(C=C%12)=CC=C%12CCCCCC)=C9C=C65)=C4)C%13=C2C=C(/C=C%14C(C(C=CC=C%15)=C%15C\%14=C(C#N)\C#N)=O)S%13,1517.11,J71,5.35,3.4,1.95,CCC[Si](CCC)(C1=CC=C(C(C2=C3C=C(C4=CC=C(C5=C(F)C(F)=C(C6=CC=C(C)S6)C7=NN(CC(CCCCCC)CCCCCCCC)N=C57)S4)S2)=C8C(SC(C)=C8)=C3C9=CC=C([Si](CCC)(CCC)CCC)S9)S1)CCC,47,23.5,2,1,1,CB,NA,160,,,,
922,421,2019,5.51,5.24,12.3,0.435,1.03,HCN-C16,5.63,3.57,2.06,CCCCCCC(C=C1)=CC=C1C2(C3=CC=C(CCCCCC)C=C3)C4=C(C=C(N5CC(CCCCCC)CCCCCCCC)C(C6=CC(C(C(C=C7)=CC=C7CCCCCC)(C8=C9SC(/C=C%10/C(C%11=C(C%10=O)C=CC=C%11)=C(C#N)/C#N)=C8)C(C=C%12)=CC=C%12CCCCCC)=C9C=C65)=C4)C%13=C2C=C(/C=C%14C(C(C=CC=C%15)=C%15C\%14=C(C#N)\C#N)=O)S%13,1629.32,J71,5.35,3.4,1.95,CCC[Si](CCC)(C1=CC=C(C(C2=C3C=C(C4=CC=C(C5=C(F)C(F)=C(C6=CC=C(C)S6)C7=NN(CC(CCCCCC)CCCCCCCC)N=C57)S4)S2)=C8C(SC(C)=C8)=C3C9=CC=C([Si](CCC)(CCC)CCC)S9)S1)CCC,47,23.5,2,1,1,CB,NA,160,,,,
923,421,2019,11.18,11.1,18.62,0.667,0.9,H2FCN-C16,5.95,3.99,1.96,CCCCCCC(C=C1)=CC=C1C2(C3=CC=C(CCCCCC)C=C3)C4=C(C=C(N5CC(CCCCCC)CCCCCCCC)C(C6=CC(C(C(C=C7)=CC=C7CCCCCC)(C8=C9SC(/C=C%10/C(C%11=C(C%10=O)C=C(F)C(F)=C%11)=C(C#N)/C#N)=C8)C(C=C%12)=CC=C%12CCCCCC)=C9C=C65)=C4)C%13=C2C=C(/C=C%14C(C(C=C(F)C(F)=C%15)=C%15C\%14=C(C#N)\C#N)=O)S%13,1701.28,J71,5.35,3.4,1.95,CCC[Si](CCC)(C1=CC=C(C(C2=C3C=C(C4=CC=C(C5=C(F)C(F)=C(C6=CC=C(C)S6)C7=NN(CC(CCCCCC)CCCCCCCC)N=C57)S4)S2)=C8C(SC(C)=C8)=C3C9=CC=C([Si](CCC)(CCC)CCC)S9)S1)CCC,47,23.5,2,1,1,CB,NA,160,,,,
924,422,2019,10.8,10.5,16.1,0.63,1.04,C8-ITCC,5.45,3.85,1.6,CCCCCCCCC1(CCCCCCCC)C2=CC3=C(C(C4=C3SC5=C4SC(/C=C6C(C(SC=C7)=C7C\6=C(C#N)\C#N)=O)=C5)(CCCCCCCC)CCCCCCCC)C=C2C8=C1C(SC(/C=C9C(C(SC=C%10)=C%10C\9=C(C#N)/C#N)=O)=C%11)=C%11S8,1247.82,PBDB-TF,5.4,3.64,1.76,CC(SC1=C2C3=CC(F)=C(CC(CC)CCCC)S3)=CC1=C(C4=CC(F)=C(CC(CC)CCCC)S4)C5=C2C=C(S5)C6=CC=C(C7=C8C(C(C9=C(CC(CC)CCCC)SC(CC(CC)CCCC)=C9C8=O)=O)=C(C%10=CC=C(C)S%10)S7)S6,38.6,19.3,2,1,1,CF,DIO,100,130,,,
925,422,2019,12.7,12.4,17.9,0.73,0.95,C8-ITCC-Cl,5.5,3.93,1.57,CCCCCCCCC1(CCCCCCCC)C2=CC3=C(C(C4=C3SC5=C4SC(/C=C6C(C(SC(Cl)=C7)=C7C\6=C(C#N)\C#N)=O)=C5)(CCCCCCCC)CCCCCCCC)C=C2C8=C1C(SC(/C=C9C(C(SC(Cl)=C%10)=C%10C\9=C(C#N)/C#N)=O)=C%11)=C%11S8,1316.71,PBDB-TF,5.4,3.64,1.76,CC(SC1=C2C3=CC(F)=C(CC(CC)CCCC)S3)=CC1=C(C4=CC(F)=C(CC(CC)CCCC)S4)C5=C2C=C(S5)C6=CC=C(C7=C8C(C(C9=C(CC(CC)CCCC)SC(CC(CC)CCCC)=C9C8=O)=O)=C(C%10=CC=C(C)S%10)S7)S6,38.6,19.3,2,1,1,CF,DIO,100,110,,,
926,423,2019,6.63,6.46,9.89,0.59,1.14,PBIBDT-Cl,6.07,3.69,2.38,O=C(N(C(CCCCC)CCCCC)C1=O)C2=CC=C3C4=C(C5=C(C6=C7SC(C6=C8C9=CC(Cl)=C(CC(CC)CCC)S9)=C(C%10=CC(Cl)=C(CC(CC)CCCC)S%10)C%11=C8SC%12=C%11C%13=CC(C(N(C%14=O)C(CCCCC)CCCCC)=O)=C%15C%14=CC=C%16C(C=C%17)=C%18C%19=C%17C(N(C(C%19=CC%12=C%18C%13=C%16%15)=O)C(CCCCC)CCCCC)=O)C=C(C(N(C(CCCCC)CCCCC)C%20=O)=O)C%21=C%20C=CC3=C5%21)C7=CC1=C42,2023.64,PBDB-T-Cl,5.76,3.58,2.18,CC(SC1=C2C3=CC(Cl)=C(CC(CC)CCCC)S3)=CC1=C(C4=CC(Cl)=C(CC(CC)CCCC)S4)C5=C2C=C(C6=CC=C(C7=C8C(C(C9=C(CC(CC)CCCC)SC(CC(CC)CCCC)=C9C8=O)=O)=C(C%10=CC=C(C)S%10)S7)S6)S5,76.276,50.373,1.51422389,1,1,CB,DIO,100,70,,,
927,423,2019,5.82,5.49,9.75,0.54,1.1,PBIBDT-ClS,5.88,3.65,2.23,O=C(N(C(CCCCC)CCCCC)C1=O)C2=CC=C3C4=C(C5=C(C6=C7SC(C6=C8C9=CC(Cl)=C(SCC(CC)CCC)S9)=C(C%10=CC(Cl)=C(SCC(CC)CCCC)S%10)C%11=C8SC%12=C%11C%13=CC(C(N(C%14=O)C(CCCCC)CCCCC)=O)=C%15C%14=CC=C%16C(C=C%17)=C%18C%19=C%17C(N(C(C%19=CC%12=C%18C%13=C%16%15)=O)C(CCCCC)CCCCC)=O)C=C(C(N(C(CCCCC)CCCCC)C%20=O)=O)C%21=C%20C=CC3=C5%21)C7=CC1=C42,2087.76,PBDB-T-ClS,5.82,3.64,2.18,CC(SC1=C2C3=CC(Cl)=C(SCC(CC)CCCC)S3)=CC1=C(C4=CC(Cl)=C(SCC(CC)CCCC)S4)C5=C2C=C(C6=CC=C(C7=C8C(C(C9=C(CC(CC)CCCC)SC(CC(CC)CCCC)=C9C8=O)=O)=C(C%10=CC=C(C)S%10)S7)S6)S5,102.779,59.454,1.728714637,1,1,CB,DIO,100,70,,,
928,424,2019,10.51,10.39,17.61,0.6184,0.954,IT-M,5.58,3.98,1.6,CCCCCCC(C=C1)=CC=C1C2(C3=CC=C(CCCCCC)C=C3)C4=CC5=C(C(C6=C5SC7=C6SC(/C=C8C(C(C=CC(C)=C9)=C9C\8=C(C#N)\C#N)=O)=C7)(C%10=CC=C(CCCCCC)C=C%10)C%11=CC=C(CCCCCC)C=C%11)C=C4C%12=C2C(SC(/C=C%13C(C(C=CC(C)=C%14)=C%14C\%13=C(C#N)/C#N)=O)=C%15)=C%15S%12,1456.01,PTBTz-2,5.48,3.52,1.96,CC(SC1=C2C3=CC=C(CC(CC)CCCC)S3)=CC1=C(C4=CC=C(CC(CC)CCCC)S4)C5=C2C=C(C6=CN=C(C7=C8SC(C(OCC(CCCCCCCC)CCCCCCCCCC)=O)=CC8=C(C9=NC=C(C)S9)S7)S6)S5,50,25,2,1,1.5,CB,DIO,NA,,,,
929,425,2019,5.45,5.38,11.64,0.5204,0.9,DTFT5-FIC,5.52,3.87,1.65,O=C(C(C=C(F)C(F)=C1)=C1C/2=C(C#N)/C#N)C2=C/C3=CC(CC(CC)CCCC)=C(C4=CC(C=C(C(C5=CC(SC(C6=C(CC(CCCC)CC)C=C(/C=C7C(C(C=C(F)C(F)=C8)=C8C\7=C(C#N)\C#N)=O)S6)=C9)=C9C=C%105)=C%11)C%10(CCCCCCCC)CCCCCCCC)=C%11S4)S3,1371.83,PBDB-T,5.36,3.54,1.82,CC(SC1=C2C3=CC=C(CC(CC)CCCC)S3)=CC1=C(C4=CC=C(CC(CC)CCCC)S4)C5=C2C=C(S5)C6=CC=C(C7=C8C(C(C9=C(CC(CC)CCCC)SC(CC(CC)CCCC)=C9C8=O)=O)=C(C%10=CC=C(C)S%10)S7)S6,45,30,1.5,1,1.3,CB,DIO,150,,,,