ID,Ref,year,PCE_max(%),PCE_ave(%),Jsc(mA/cm2),FF,Voc(V),Nickname(n),-HOMO_n(eV),-LUMO_n(eV),Eg_n(eV),n(SMILES),M (g/mol),Nickname(p),-HOMO_p(eV),-LUMO_p(eV),Eg_p(eV),p(SMILES),Mw (kg/mol),Mn(kg/mol),PDI,p/n ratio (p),p/n ratio (n),Solvent,Additive,TA (oC),thick (nm),,Journal,DOI
562,253,2018,12.01,11.83,17,0.753,0.939,IDIC,5.67,4.1,1.57,O=C(C(C=CC=C1)=C1C/2=C(C#N)\C#N)C2=C/C(S3)=CC4=C3C5=C(C4(CCCCCC)CCCCCC)C=C6C(C(CCCCCC)(CCCCCC)C7=C6SC(/C=C8C(C(C=CC=C9)=C9C\8=C(C#N)/C#N)=O)=C7)=C5,1011.4,PJ2,5.14,3.33,1.81,CC1=CC(C(S1)=C2C3=CC=C([Si](CCC)(CCC)CCC)S3)=C(C4=C2C=C(C5=CC=C(C6=C7C(C(C8=C(CC(CC)CCCC)SC(CC(CC)CCCC)=C8C7=O)=O)=C(C9=CC=C(C)S9)S6)S5)S4)C%10=CC=C([Si](CCC)(CCC)CCC)S%10,115.344,80.1,1.44,1,1.5,CF,DIO,130,110,,Energy Environ. Sci.,10.1039/c8ee01546e
563,253,2018,5.56,5.43,11.4,0.509,0.958,AIDIC,5.7,4.01,1.69,O=C(C(C=CC=C1)=C1C/2=C(C#N)\C#N)C2=C/C(S3)=CC=C3C4=CC=C5C(C(CCCCCC)(CCCCCC)C6=C5SC(/C=C7C(C(C=CC=C8)=C8C\7=C(C#N)/C#N)=O)=C6)=C4,831.07,PJ2,5.14,3.33,1.81,CC1=CC(C(S1)=C2C3=CC=C([Si](CCC)(CCC)CCC)S3)=C(C4=C2C=C(C5=CC=C(C6=C7C(C(C8=C(CC(CC)CCCC)SC(CC(CC)CCCC)=C8C7=O)=O)=C(C9=CC=C(C)S9)S6)S5)S4)C%10=CC=C([Si](CCC)(CCC)CCC)S%10,115.344,80.1,1.44,1,1.5,CF,DIO,130,119,,Energy Environ. Sci.,10.1039/c8ee01546e
564,253,2018,7.76,7.45,12.7,0.635,0.96,m-ITIC,5.54,3.95,1.59,O=C(C(C=CC=C1)=C1C/2=C(C#N)\C#N)C2=C/C3=CC(S4)=C(S3)C5=C4C6=CC(C(C7=C8SC9=C7SC(/C=C%10C(C(C=CC=C%11)=C%11C\%10=C(C#N)\C#N)=O)=C9)(C%12=CC=CC(CCCCCC)=C%12)C%13=CC(CCCCCC)=CC=C%13)=C8C=C6C(C%14=CC(CCCCCC)=CC=C%14)5C%15=CC=CC(CCCCCC)=C%15,1427.96,PJ3,5.01,3.26,1.75,CC1=CC(C(S1)=C2C3=CC=C([Si](CCC)(CCC)CCC)S3)=C(C4=C2C=C(C5=C(CC(CCCCCCCC)CCCCCCCCCC)C=C(C6=C(F)C(F)=C(C7=CC(CC(CCCCCCCC)CCCCCCCCCC)=C(C)S7)C8=NSN=C68)S5)S4)C9=CC=C([Si](CCC)(CCC)CCC)S9,123.552,79.2,1.56,1,1.5,CF,DIO,130,118,,Energy Environ. Sci.,10.1039/c8ee01546e
565,253,2018,8.11,7.93,12.8,0.698,0.908,IDIC,5.67,4.1,1.57,O=C(C(C=CC=C1)=C1C/2=C(C#N)\C#N)C2=C/C(S3)=CC4=C3C5=C(C4(CCCCCC)CCCCCC)C=C6C(C(CCCCCC)(CCCCCC)C7=C6SC(/C=C8C(C(C=CC=C9)=C9C\8=C(C#N)/C#N)=O)=C7)=C5,1011.4,PJ3,5.01,3.26,1.75,CC1=CC(C(S1)=C2C3=CC=C([Si](CCC)(CCC)CCC)S3)=C(C4=C2C=C(C5=C(CC(CCCCCCCC)CCCCCCCCCC)C=C(C6=C(F)C(F)=C(C7=CC(CC(CCCCCCCC)CCCCCCCCCC)=C(C)S7)C8=NSN=C68)S5)S4)C9=CC=C([Si](CCC)(CCC)CCC)S9,123.552,79.2,1.56,1,1.5,CF,DIO,130,115,,Energy Environ. Sci.,10.1039/c8ee01546e
566,253,2018,2.25,2.1,4.7,0.554,0.867,AIDIC,5.7,4.01,1.69,O=C(C(C=CC=C1)=C1C/2=C(C#N)\C#N)C2=C/C(S3)=CC=C3C4=CC=C5C(C(CCCCCC)(CCCCCC)C6=C5SC(/C=C7C(C(C=CC=C8)=C8C\7=C(C#N)/C#N)=O)=C6)=C4,831.07,PJ3,5.01,3.26,1.75,CC1=CC(C(S1)=C2C3=CC=C([Si](CCC)(CCC)CCC)S3)=C(C4=C2C=C(C5=C(CC(CCCCCCCC)CCCCCCCCCC)C=C(C6=C(F)C(F)=C(C7=CC(CC(CCCCCCCC)CCCCCCCCCC)=C(C)S7)C8=NSN=C68)S5)S4)C9=CC=C([Si](CCC)(CCC)CCC)S9,123.552,79.2,1.56,1,1.5,CF,DIO,130,121,,Energy Environ. Sci.,10.1039/c8ee01546e
567,254,2018,7.04,6.96,13.38,0.5842,0.89,ITBTR-C2,5.3,3.7,1.6,CCCCCCC(C=C1)=CC=C1C2(C3=CC=C(CCCCCC)C=C3)C4=CC5=C(C(C6=C5SC7=C6SC(C8=CC=C(/C=C9S/C(N(CC)C\9=O)=C(C#N)/C#N)C%10=NSN=C%108)=C7)(C%11=CC=C(CCCCCC)C=C%11)C%12=CC=C(CCCCCC)C=C%12)C=C4C%13=C2C(SC(C%14=CC=C(/C=C%15S/C(N(CC)C\%15=O)=C(C#N)/C#N)C%16=NSN=C%16%14)=C%17)=C%17S%13,1694.33,PTDB-T,5.21,3.41,1.81,CC(SC1=C2C3=CC=C(CC(CC)CCCC)S3)=CC1=C(C4=CC=C(CC(CC)CCCC)S4)C5=C2C=C(S5)C6=CC=C(C7=C8C(C(C9=C(CC(CC)CCCC)SC(CC(CC)CCCC)=C9C8=O)=O)=C(C%10=CC=C(C)S%10)S7)S6,117,58.5,2,1,1,CB,DIO,NA,,,,
568,254,2018,7.43,7.33,14.75,0.5415,0.9,ITBTR-C4,5.3,3.71,1.59,CCCCCCC(C=C1)=CC=C1C2(C3=CC=C(CCCCCC)C=C3)C4=CC5=C(C(C6=C5SC7=C6SC(C8=CC=C(/C=C9S/C(N(CCCC)C\9=O)=C(C#N)/C#N)C%10=NSN=C%108)=C7)(C%11=CC=C(CCCCCC)C=C%11)C%12=CC=C(CCCCCC)C=C%12)C=C4C%13=C2C(SC(C%14=CC=C(/C=C%15S/C(N(CCCC)C\%15=O)=C(C#N)/C#N)C%16=NSN=C%16%14)=C%17)=C%17S%13,1750.44,PTDB-T,5.21,3.41,1.81,CC(SC1=C2C3=CC=C(CC(CC)CCCC)S3)=CC1=C(C4=CC=C(CC(CC)CCCC)S4)C5=C2C=C(S5)C6=CC=C(C7=C8C(C(C9=C(CC(CC)CCCC)SC(CC(CC)CCCC)=C9C8=O)=O)=C(C%10=CC=C(C)S%10)S7)S6,117,58.5,2,1,1,CB,DIO,NA,,,,
569,254,2018,8.26,8.18,15.72,0.5783,0.89,ITBTR-C6,5.3,3.71,1.59,CCCCCCC(C=C1)=CC=C1C2(C3=CC=C(CCCCCC)C=C3)C4=CC5=C(C(C6=C5SC7=C6SC(C8=CC=C(/C=C9S/C(N(CCCCCC)C\9=O)=C(C#N)/C#N)C%10=NSN=C%108)=C7)(C%11=CC=C(CCCCCC)C=C%11)C%12=CC=C(CCCCCC)C=C%12)C=C4C%13=C2C(SC(C%14=CC=C(/C=C%15S/C(N(CCCCCC)C\%15=O)=C(C#N)/C#N)C%16=NSN=C%16%14)=C%17)=C%17S%13,1806.55,PTDB-T,5.21,3.41,1.81,CC(SC1=C2C3=CC=C(CC(CC)CCCC)S3)=CC1=C(C4=CC=C(CC(CC)CCCC)S4)C5=C2C=C(S5)C6=CC=C(C7=C8C(C(C9=C(CC(CC)CCCC)SC(CC(CC)CCCC)=C9C8=O)=O)=C(C%10=CC=C(C)S%10)S7)S6,117,58.5,2,1,1,CB,DIO,NA,,,,
570,254,2018,7.93,7.85,14.74,0.5847,0.9,ITBTR-C8,5.28,3.7,1.58,CCCCCCC(C=C1)=CC=C1C2(C3=CC=C(CCCCCC)C=C3)C4=CC5=C(C(C6=C5SC7=C6SC(C8=CC=C(/C=C9S/C(N(CCCCCCCC)C\9=O)=C(C#N)/C#N)C%10=NSN=C%108)=C7)(C%11=CC=C(CCCCCC)C=C%11)C%12=CC=C(CCCCCC)C=C%12)C=C4C%13=C2C(SC(C%14=CC=C(/C=C%15S/C(N(CCCCCCCC)C\%15=O)=C(C#N)/C#N)C%16=NSN=C%16%14)=C%17)=C%17S%13,1862.65,PTDB-T,5.21,3.41,1.81,CC(SC1=C2C3=CC=C(CC(CC)CCCC)S3)=CC1=C(C4=CC=C(CC(CC)CCCC)S4)C5=C2C=C(S5)C6=CC=C(C7=C8C(C(C9=C(CC(CC)CCCC)SC(CC(CC)CCCC)=C9C8=O)=O)=C(C%10=CC=C(C)S%10)S7)S6,117,58.5,2,1,1,CB,DIO,NA,,,,
571,254,2018,9.29,9.17,16.13,0.6356,0.88,ITBTR-C6,5.3,3.71,1.59,CCCCCCC(C=C1)=CC=C1C2(C3=CC=C(CCCCCC)C=C3)C4=CC5=C(C(C6=C5SC7=C6SC(C8=CC=C(/C=C9S/C(N(CCCCCC)C\9=O)=C(C#N)/C#N)C%10=NSN=C%108)=C7)(C%11=CC=C(CCCCCC)C=C%11)C%12=CC=C(CCCCCC)C=C%12)C=C4C%13=C2C(SC(C%14=CC=C(/C=C%15S/C(N(CCCCCC)C\%15=O)=C(C#N)/C#N)C%16=NSN=C%16%14)=C%17)=C%17S%13,1806.55,PTDB-T,5.21,3.41,1.81,CC(SC1=C2C3=CC=C(CC(CC)CCCC)S3)=CC1=C(C4=CC=C(CC(CC)CCCC)S4)C5=C2C=C(S5)C6=CC=C(C7=C8C(C(C9=C(CC(CC)CCCC)SC(CC(CC)CCCC)=C9C8=O)=O)=C(C%10=CC=C(C)S%10)S7)S6,117,58.5,2,1,1,CB,DIO,120,,,,
572,255,2018,3.3,3.1,7.8,0.3095,0.998,FBRCN,5.84,3.77,2.07,O=C(/C(S/1)=C/C2=CC=C(C3=NSN=C32)C4=CC=C(C5=CC=C(C=C5C6(CCCCCCCC)CCCCCCCC)C7=CC=C(/C=C8C(N(/C(S/8)=C(C#N)/C#N)CC)=O)C9=NSN=C97)C6=C4)N(CC)C1=C(C#N)/C#N,1065.41,PTB7-Th,5.3,3.6,1.7,O=C(OCC(CC)CCCC)C1=C(F)C2=C(C)SC(C3=CC4=C(C(C5=CC=C(CC(CC)CCCC)S5)=C(C=C(C)S6)C6=C4C7=CC=C(CC(CC)CCCC)S7)S3)=C2S1,124,72.9,1.7,1,1.5,CB,DIO,NA,,,,
573,255,2018,1.42,1.32,4.4,0.333,0.91,XFBRCN,5.89,3.77,2.12,O=C(/C(S/1)=C/C2=CC=C(C3=NSN=C32)C4=CC=C(C5=CC=C(C=C5C67C8=CC(C(C9=NSN=C9%10)=CC=C%10/C=C%11S/C(N(CC)C\%11=O)=C(C#N)/C#N)=CC=C8C%12=CC=C(C=C%127)C%13=CC=C(C%14=NSN=C%14%13)/C=C%15C(N(/C(S/%15)=C(C#N)/C#N)CC)=O)C%16=CC=C(/C=C%17C(N(/C(S/%17)=C(C#N)/C#N)CC)=O)C%18=NSN=C%18%16)C6=C4)N(CC)C1=C(C#N)/C#N,1665.9,PTB7-Th,5.3,3.6,1.7,O=C(OCC(CC)CCCC)C1=C(F)C2=C(C)SC(C3=CC4=C(C(C5=CC=C(CC(CC)CCCC)S5)=C(C=C(C)S6)C6=C4C7=CC=C(CC(CC)CCCC)S7)S3)=C2S1,124,72.9,1.7,1,0.5,CB,NA,140,,,,
574,256,2018,7.6,7.6,16.85,0.6348,0.71,IT-4F,5.66,4.14,1.52,CCCCCCC(C=C1)=CC=C1C2(C3=CC=C(CCCCCC)C=C3)C4=CC5=C(C(C6=C5SC7=C6SC(/C=C8C(C(C=C(F)C(F)=C9)=C9C\8=C(C#N)\C#N)=O)=C7)(C%10=CC=C(CCCCCC)C=C%10)C%11=CC=C(CCCCCC)C=C%11)C=C4C%12=C2C(SC(/C=C%13C(C(C=C(F)C(F)=C%14)=C%14C\%13=C(C#N)/C#N)=O)=C%15)=C%15S%12,1499.92,PBT1Cl-Bz,5.39,3.57,1.82,CC(SC1=C2C3=CC=C(CC(CC)CCCC)S3)=CC1=C(C4=CC(Cl)=C(CC(CC)CCCC)S4)C5=C2C=C(S5)C6=CC=C(C7=C(F)C(F)=C(C8=CC=C(C)S8)C9=NN(CC(CCCCCC)CCCCCCCC)N=C97)S6,41.96,20.44,2.052837573,1,1,CB,DIO,NA,105,,,
575,256,2018,4.43,4.43,13.43,0.4175,0.79,IT-4F,5.66,4.14,1.52,CCCCCCC(C=C1)=CC=C1C2(C3=CC=C(CCCCCC)C=C3)C4=CC5=C(C(C6=C5SC7=C6SC(/C=C8C(C(C=C(F)C(F)=C9)=C9C\8=C(C#N)\C#N)=O)=C7)(C%10=CC=C(CCCCCC)C=C%10)C%11=CC=C(CCCCCC)C=C%11)C=C4C%12=C2C(SC(/C=C%13C(C(C=C(F)C(F)=C%14)=C%14C\%13=C(C#N)/C#N)=O)=C%15)=C%15S%12,1499.92,PBT2Cl(as)-Bz,5.48,3.56,1.92,CC(SC1=C2C3=CC=C(CC(CC)CCCC)S3)=CC1=C(C4=C(Cl)C(Cl)=C(CC(CC)CCCC)S4)C5=C2C=C(S5)C6=CC=C(C7=C(F)C(F)=C(C8=CC=C(C)S8)C9=NN(CC(CCCCCC)CCCCCCCC)N=C97)S6,67.02,21.51,3.115760112,1,1,CB,DIO,NA,95,,,
576,256,2018,7.8,7.8,15.55,0.6521,0.77,IT-4F,5.66,4.14,1.52,CCCCCCC(C=C1)=CC=C1C2(C3=CC=C(CCCCCC)C=C3)C4=CC5=C(C(C6=C5SC7=C6SC(/C=C8C(C(C=C(F)C(F)=C9)=C9C\8=C(C#N)\C#N)=O)=C7)(C%10=CC=C(CCCCCC)C=C%10)C%11=CC=C(CCCCCC)C=C%11)C=C4C%12=C2C(SC(/C=C%13C(C(C=C(F)C(F)=C%14)=C%14C\%13=C(C#N)/C#N)=O)=C%15)=C%15S%12,1499.92,PBT2Cl(s)-Bz,5.47,3.58,1.89,CC(SC1=C2C3=CC(Cl)=C(CC(CC)CCCC)S3)=CC1=C(C4=CC(Cl)=C(CC(CC)CCCC)S4)C5=C2C=C(S5)C6=CC=C(C7=C(F)C(F)=C(C8=CC=C(C)S8)C9=NN(CC(CCCCCC)CCCCCCCC)N=C97)S6,45.87,26.06,1.760168841,1,1,CB,DIO,NA,110,,,
577,256,2018,9.25,9.25,16.42,0.5869,0.96,IT-4F,5.66,4.14,1.52,CCCCCCC(C=C1)=CC=C1C2(C3=CC=C(CCCCCC)C=C3)C4=CC5=C(C(C6=C5SC7=C6SC(/C=C8C(C(C=C(F)C(F)=C9)=C9C\8=C(C#N)\C#N)=O)=C7)(C%10=CC=C(CCCCCC)C=C%10)C%11=CC=C(CCCCCC)C=C%11)C=C4C%12=C2C(SC(/C=C%13C(C(C=C(F)C(F)=C%14)=C%14C\%13=C(C#N)/C#N)=O)=C%15)=C%15S%12,1499.92,PBT4Cl-Bz,5.64,3.57,2.07,CC(SC1=C2C3=C(Cl)C(Cl)=C(CC(CC)CCCC)S3)=CC1=C(C4=C(Cl)C(Cl)=C(CC(CC)CCCC)S4)C5=C2C=C(S5)C6=CC=C(C7=C(F)C(F)=C(C8=CC=C(C)S8)C9=NN(CC(CCCCCC)CCCCCCCC)N=C97)S6,66.79,31.1,2.147588424,1,1,CB,DIO,NA,100,,,
578,257,2018,6.61,6.56,14.78,0.561,0.8,FPDI-Se,6.18,3.95,2.23,O=C1N(C(CCCCC)CCCCC)C(C2=C3C(C4=C5C=C31)=C(C6=C7C4=C([Se]5)C=C(C(N(C(CCCCC)CCCCC)C8=O)=O)C7=C8C=C69)C(C%10=C9C(C=C%11C(N(C(CCCCC)CCCCC)C%12=O)=O)=C%13C%14=C%10C=C%15C%16=C(C(N(C(CCCCC)CCCCC)C%15=O)=O)C=CC(C%17=C%13C%11=C%12C=C%17)=C%14%16)=C2)=O,1494.83,PTB7-Th,5.22,3.64,1.58,O=C(OCC(CC)CCCC)C1=C(F)C2=C(C)SC(C3=CC4=C(C(C5=CC=C(CC(CC)CCCC)S5)=C(C=C(C)S6)C6=C4C7=CC=C(CC(CC)CCCC)S7)S3)=C2S1,124,72.9,1.700960219,1,1.5,CB,CN,NA,110,,,
579,257,2018,4.45,4.37,14.42,0.395,0.78,FPDI-2Se,6.09,3.92,2.17,O=C1N(C(CCCCC)CCCCC)C(C2=C3C(C4=C5C=C31)=C(C6=C7C4=C([Se]5)C=C(C(N(C(CCCCC)CCCCC)C8=O)=O)C7=C8C=C69)C(C%10=C9C(C=C%11C(N(C(CCCCC)CCCCC)C%12=O)=O)=C%13C%14=C%10C=C%15C%16=C(C(N(C(CCCCC)CCCCC)C%15=O)=O)C=C%17C(C%18=C%13C%11=C%12C=C%18[Se]%17)=C%14%16)=C2)=O,1571.77,PTB7-Th,5.22,3.64,1.58,O=C(OCC(CC)CCCC)C1=C(F)C2=C(C)SC(C3=CC4=C(C(C5=CC=C(CC(CC)CCCC)S5)=C(C=C(C)S6)C6=C4C7=CC=C(CC(CC)CCCC)S7)S3)=C2S1,124,72.9,1.700960219,1,1.5,CB,CN,NA,110,,,
580,258,2018,4.17,4.17,11.89,0.49,0.716,ITBC,5.61,4.13,1.48,CCCCCCC(C=C1)=CC=C1C2(C3=CC=C(CCCCCC)C=C3)C4=CC5=C(C(C6=C5SC7=C6SC(/C=C8S(C(C=CC=C9)=C9C\8=C(C#N)\C#N)(=O)=O)=C7)(C%10=CC=C(CCCCCC)C=C%10)C%11=CC=C(CCCCCC)C=C%11)C=C4C%12=C2C(SC(/C=C%13S(C(C=CC=C%14)=C%14C\%13=C(C#N)/C#N)(=O)=O)=C%15)=C%15S%12,1500.05,FTAZ,5.48,3.47,2.01,CC1=CC2=C(S1)C(CCC(CCCC)CCCCCC)=C3C=C(SC3=C2CCC(CCCC)CCCCCC)C4=CC=C(S4)C5=C(C(F)=C(C6=NN(N=C65)CC(CCCC)CCCCCC)C7=CC=C(S7)C)F,114,60,1.9,1,1,CB,NA,NA,50,,,
581,259,2019,8.37,8.28,15.06,0.616,0.9,ITIC,5.51,3.78,1.73,CCCCCCC(C=C1)=CC=C1C2(C3=CC=C(CCCCCC)C=C3)C4=CC5=C(C(C6=C5SC7=C6SC(/C=C8C(C(C=CC=C9)=C9C\8=C(C#N)\C#N)=O)=C7)(C%10=CC=C(CCCCCC)C=C%10)C%11=CC=C(CCCCCC)C=C%11)C=C4C%12=C2C(SC(/C=C%13C(C(C=CC=C%14)=C%14C\%13=C(C#N)/C#N)=O)=C%15)=C%15S%12,1427.96,PTDB-T,5.33,2.92,2.41,CC(SC1=C2C3=CC=C(CC(CC)CCCC)S3)=CC1=C(C4=CC=C(CC(CC)CCCC)S4)C5=C2C=C(S5)C6=CC=C(C7=C8C(C(C9=C(CC(CC)CCCC)SC(CC(CC)CCCC)=C9C8=O)=O)=C(C%10=CC=C(C)S%10)S7)S6,117,58.5,2,1,1,DBC,CN,110,,,,
582,260,2019,7.71,7.65,18.13,0.5458,0.78,B-4TPDI,5.84,3.89,1.95,O=C(N1C(CCCCC)CCCCC)C2=C3C4=C(C=C2)C5=CC=C6C7=C(C(N(C(CCCCC)CCCCC)C6=O)=O)C=C(C#CC8=CC(C#CC9=CC(C(N%10C(CCCCC)CCCCC)=O)=C%11C(C%12=CC=C%11C%10=O)=C9C%13=CC=C%14C%15=C(C(N(C(CCCCC)CCCCC)C%14=O)=O)C=CC%12=C%13%15)=C%16C=CC%17=C(C#CC%18=CC(C(N%19C(CCCCC)CCCCC)=O)=C%20C%21=C%18C%22=CC=C%23C%24=C(C(N(C(CCCCC)CCCCC)C%23=O)=O)C=CC(C%21=CC=C%20C%19=O)=C%22%24)C=C(C#CC%25=CC(C(N%26C(CCCCC)CCCCC)=O)=C%27C%28=C%25C%29=CC=C%30C%31=C(C(N(C(CCCCC)CCCCC)C%30=O)=O)C=CC(C%28=CC=C%27C%26=O)=C%29%31)C%32=C%17C%16=C8C=C%32)C(C4=CC=C3C1=O)=C57,3086.07,PTB7-Th,5.15,3.31,1.84,O=C(OCC(CC)CCCC)C1=C(F)C2=C(C)SC(C3=CC4=C(C(C5=CC=C(CC(CC)CCCC)S5)=C(C=C(C)S6)C6=C4C7=CC=C(CC(CC)CCCC)S7)S3)=C2S1,124,72.9,1.700960219,1,1.5,CB,CN,NA,,,,
583,260,2019,6.84,6.7,13.15,0.6042,0.86,B-4TPDI,5.84,3.89,1.95,O=C(N1C(CCCCC)CCCCC)C2=C3C4=C(C=C2)C5=CC=C6C7=C(C(N(C(CCCCC)CCCCC)C6=O)=O)C=C(C#CC8=CC(C#CC9=CC(C(N%10C(CCCCC)CCCCC)=O)=C%11C(C%12=CC=C%11C%10=O)=C9C%13=CC=C%14C%15=C(C(N(C(CCCCC)CCCCC)C%14=O)=O)C=CC%12=C%13%15)=C%16C=CC%17=C(C#CC%18=CC(C(N%19C(CCCCC)CCCCC)=O)=C%20C%21=C%18C%22=CC=C%23C%24=C(C(N(C(CCCCC)CCCCC)C%23=O)=O)C=CC(C%21=CC=C%20C%19=O)=C%22%24)C=C(C#CC%25=CC(C(N%26C(CCCCC)CCCCC)=O)=C%27C%28=C%25C%29=CC=C%30C%31=C(C(N(C(CCCCC)CCCCC)C%30=O)=O)C=CC(C%28=CC=C%27C%26=O)=C%29%31)C%32=C%17C%16=C8C=C%32)C(C4=CC=C3C1=O)=C57,3086.07,PBDB-T,5.33,3.53,1.8,CC(SC1=C2C3=CC=C(CC(CC)CCCC)S3)=CC1=C(C4=CC=C(CC(CC)CCCC)S4)C5=C2C=C(S5)C6=CC=C(C7=C8C(C(C9=C(CC(CC)CCCC)SC(CC(CC)CCCC)=C9C8=O)=O)=C(C%10=CC=C(C)S%10)S7)S6,117,58.5,2,1.5,1,CB,CN,NA,,,,
584,260,2019,7.73,7.64,15.6,0.60889,0.81,ITIC,5.48,3.83,1.65,CCCCCCC(C=C1)=CC=C1C2(C3=CC=C(CCCCCC)C=C3)C4=CC5=C(C(C6=C5SC7=C6SC(/C=C8C(C(C=CC=C9)=C9C\8=C(C#N)\C#N)=O)=C7)(C%10=CC=C(CCCCCC)C=C%10)C%11=CC=C(CCCCCC)C=C%11)C=C4C%12=C2C(SC(/C=C%13C(C(C=CC=C%14)=C%14C\%13=C(C#N)/C#N)=O)=C%15)=C%15S%12,1427.96,PTB7-Th,5.15,3.31,1.84,O=C(OCC(CC)CCCC)C1=C(F)C2=C(C)SC(C3=CC4=C(C(C5=CC=C(CC(CC)CCCC)S5)=C(C=C(C)S6)C6=C4C7=CC=C(CC(CC)CCCC)S7)S3)=C2S1,124,72.9,1.700960219,1,1.3,CB,NA,NA,,,,
585,260,2019,10.64,10.5,18.33,0.6711,0.86,ITIC,5.48,3.83,1.65,CCCCCCC(C=C1)=CC=C1C2(C3=CC=C(CCCCCC)C=C3)C4=CC5=C(C(C6=C5SC7=C6SC(/C=C8C(C(C=CC=C9)=C9C\8=C(C#N)\C#N)=O)=C7)(C%10=CC=C(CCCCCC)C=C%10)C%11=CC=C(CCCCCC)C=C%11)C=C4C%12=C2C(SC(/C=C%13C(C(C=CC=C%14)=C%14C\%13=C(C#N)/C#N)=O)=C%15)=C%15S%12,1427.96,PBDB-T,5.33,3.53,1.8,CC(SC1=C2C3=CC=C(CC(CC)CCCC)S3)=CC1=C(C4=CC=C(CC(CC)CCCC)S4)C5=C2C=C(S5)C6=CC=C(C7=C8C(C(C9=C(CC(CC)CCCC)SC(CC(CC)CCCC)=C9C8=O)=O)=C(C%10=CC=C(C)S%10)S7)S6,117,58.5,2,1,1,CB,DIO,NA,,,,
586,261,2019,8.27,8.12,13.08,0.6723,0.94,ITIC,5.51,3.84,1.67,CCCCCCC(C=C1)=CC=C1C2(C3=CC=C(CCCCCC)C=C3)C4=CC5=C(C(C6=C5SC7=C6SC(/C=C8C(C(C=CC=C9)=C9C\8=C(C#N)\C#N)=O)=C7)(C%10=CC=C(CCCCCC)C=C%10)C%11=CC=C(CCCCCC)C=C%11)C=C4C%12=C2C(SC(/C=C%13C(C(C=CC=C%14)=C%14C\%13=C(C#N)/C#N)=O)=C%15)=C%15S%12,1427.96,P12,5.3,3.5,1.8,CC(SC1=C2C3=CC=C(C4=CC(C=CC(CC(CCCCCCCC)CCCCCC)=C5)=C5C=C4)S3)=CC1=C(C6=CC=C(C7=CC(C=CC(OCC(CCCCCCCC)CCCCCC)=C8)=C8C=C7)S6)C9=C2C=C(S9)C%10=C(CC(CC)CCCC)C=C(C%11=C%12C(C(C%13=C(CC(CC)CCCC)SC(CC(CC)CCCC)=C%13C%12=O)=O)=C(C%14=CC(CC(CC)CCCC)=C(C)S%14)S%11)S%10,18.3,12.3,1.487804878,1,1,CB,DPE,NA,105,,,
587,261,2019,10.02,9.9,15.16,0.7007,0.943,ITIC,5.51,3.84,1.67,CCCCCCC(C=C1)=CC=C1C2(C3=CC=C(CCCCCC)C=C3)C4=CC5=C(C(C6=C5SC7=C6SC(/C=C8C(C(C=CC=C9)=C9C\8=C(C#N)\C#N)=O)=C7)(C%10=CC=C(CCCCCC)C=C%10)C%11=CC=C(CCCCCC)C=C%11)C=C4C%12=C2C(SC(/C=C%13C(C(C=CC=C%14)=C%14C\%13=C(C#N)/C#N)=O)=C%15)=C%15S%12,1427.96,P19,5.3,3.5,1.8,CC(SC1=C2C3=CC=C(C4=CC(C=CC(CC(CCCCCCCC)CCCCCC)=C5)=C5C=C4)S3)=CC1=C(C6=CC=C(C7=CC(C=CC(OCC(CCCCCCCC)CCCCCC)=C8)=C8C=C7)S6)C9=C2C=C(S9)C%10=C(CC(CC)CCCC)C=C(C%11=C%12C(C(C%13=C(CC(CC)CCCC)SC(CC(CC)CCCC)=C%13C%12=O)=O)=C(C%14=CC(CC(CC)CCCC)=C(C)S%14)S%11)S%10,31.4,19.7,1.593908629,1,1,CB,DPE,NA,105,,,
588,261,2019,5.52,5.35,11.43,0.5105,0.946,ITIC,5.51,3.84,1.67,CCCCCCC(C=C1)=CC=C1C2(C3=CC=C(CCCCCC)C=C3)C4=CC5=C(C(C6=C5SC7=C6SC(/C=C8C(C(C=CC=C9)=C9C\8=C(C#N)\C#N)=O)=C7)(C%10=CC=C(CCCCCC)C=C%10)C%11=CC=C(CCCCCC)C=C%11)C=C4C%12=C2C(SC(/C=C%13C(C(C=CC=C%14)=C%14C\%13=C(C#N)/C#N)=O)=C%15)=C%15S%12,1427.96,P32,5.3,3.5,1.8,CC(SC1=C2C3=CC=C(C4=CC(C=CC(CC(CCCCCCCC)CCCCCC)=C5)=C5C=C4)S3)=CC1=C(C6=CC=C(C7=CC(C=CC(OCC(CCCCCCCC)CCCCCC)=C8)=C8C=C7)S6)C9=C2C=C(S9)C%10=C(CC(CC)CCCC)C=C(C%11=C%12C(C(C%13=C(CC(CC)CCCC)SC(CC(CC)CCCC)=C%13C%12=O)=O)=C(C%14=CC(CC(CC)CCCC)=C(C)S%14)S%11)S%10,73.3,32.6,2.248466258,1,1,CB,DPE,NA,105,,,
589,262,2018,2.55,2.5,5.81,0.61,0.72,BT3,5.53,3.79,1.74,O=C(N(CC)/C1=C(C#N)/C#N)/C(S1)=C/C(C2=NSN=C23)=CC=C3C4=CC5=C(C6=C(C5(C7=CC=C(CCCCCC)C=C7)C8=CC=C(CCCCCC)C=C8)C=C(C9=C(C%10(C%11=CC=C(CCCCCC)C=C%11)C%12=CC=C(CCCCCC)C=C%12)C=C(C%13=CC=C(/C=C(S/%14)\C(N(CC)C%14=C(C#N)\C#N)=O)C%15=NSN=C%15%13)S9)C%10=C6)S4,1582.17,P3HT,5,3.1,1.9,CC1=CC(CCCCCC)=C(C)S1,21.1,11.6,1.818965517,1,0.3,CF,NA,120,,,,
590,262,2018,5.67,5.48,9.86,0.65,0.9,BTA3,5.34,3.28,2.06,O=C(N(CC)/C1=C(C#N)/C#N)/C(S1)=C/C(C2=NN(CCCCCCCC)N=C23)=CC=C3C4=CC5=C(C6=C(C5(C7=CC=C(CCCCCC)C=C7)C8=CC=C(CCCCCC)C=C8)C=C(C9=C(C%10(C%11=CC=C(CCCCCC)C=C%11)C%12=CC=C(CCCCCC)C=C%12)C=C(C%13=CC=C(/C=C(S/%14)\C(N(CC)C%14=C(C#N)\C#N)=O)C%15=NN(CCCCCCCC)N=C%15%13)S9)C%10=C6)S4,1772.51,P3HT,5,3.1,1.9,CC1=CC(CCCCCC)=C(C)S1,21.1,11.6,1.818965517,1,0.5,CF,NA,130,,,,
591,263,2018,10.9,10.79,17.24,0.7098,0.89,HF-PCIC,5.53,3.83,1.7,O=C(C(C=C(F)C(F)=C1)=C1C/2=C(C#N)/C#N)C2=C/C3=CC(C4(CC(CC)CCCC)CC(CC)CCCC)=C(S3)C5=C4C=C(S5)C6=C(F)C=C(C(S7)=CC8=C7C(SC(/C=C9C(C(C=C(F)C(F)=C%10)=C%10C\9=C(C#N)\C#N)=O)=C%11)=C%11C8(CC(CC)CCCC)CC(CC)CCCC)C(F)=C6,1395.8,PBDB-TF,5.48,3.64,1.84,CC(SC1=C2C3=CC(F)=C(CC(CC)CCCC)S3)=CC1=C(C4=CC(F)=C(CC(CC)CCCC)S4)C5=C2C=C(S5)C6=CC=C(C7=C8C(C(C9=C(CC(CC)CCCC)SC(CC(CC)CCCC)=C9C8=O)=O)=C(C%10=CC=C(C)S%10)S7)S6,38.6,19.3,2,1,1.2,CB,CN,100,,,,
592,263,2018,11.48,11.36,17.54,0.7269,0.88,HC-PCIC,5.54,3.87,1.67,O=C(C(C=C(Cl)C(Cl)=C1)=C1C/2=C(C#N)/C#N)C2=C/C3=CC(C4(CC(CC)CCCC)CC(CC)CCCC)=C(S3)C5=C4C=C(S5)C6=C(F)C=C(C(S7)=CC8=C7C(SC(/C=C9C(C(C=C(Cl)C(Cl)=C%10)=C%10C\9=C(C#N)\C#N)=O)=C%11)=C%11C8(CC(CC)CCCC)CC(CC)CCCC)C(F)=C6,1461.6,PBDB-TF,5.48,3.64,1.84,CC(SC1=C2C3=CC(F)=C(CC(CC)CCCC)S3)=CC1=C(C4=CC(F)=C(CC(CC)CCCC)S4)C5=C2C=C(S5)C6=CC=C(C7=C8C(C(C9=C(CC(CC)CCCC)SC(CC(CC)CCCC)=C9C8=O)=O)=C(C%10=CC=C(C)S%10)S7)S6,38.6,19.3,2,1,1.2,CB,CN,100,,,,
593,264,2018,12.09,11.89,18.52,0.7143,0.914,ITIC,5.6,3.93,1.67,CCCCCCC(C=C1)=CC=C1C2(C3=CC=C(CCCCCC)C=C3)C4=CC5=C(C(C6=C5SC7=C6SC(/C=C8C(C(C=CC=C9)=C9C\8=C(C#N)\C#N)=O)=C7)(C%10=CC=C(CCCCCC)C=C%10)C%11=CC=C(CCCCCC)C=C%11)C=C4C%12=C2C(SC(/C=C%13C(C(C=CC=C%14)=C%14C\%13=C(C#N)/C#N)=O)=C%15)=C%15S%12,1427.96,PBDTTz-SBP,5.46,3.5,1.96,CC(SC1=C2C3=CC=C(C4=CC=C(SCC(CCCCCC)CCCCCCCC)C=C4)C=C3)=CC1=C(C5=CC=C(C6=CC=C(SCC(CCCCCC)CCCCCCCC)C=C6)C=C5)C7=C2C=C(C8=CC=C(C9=C(F)C(F)=C(C%10=CC=C(C)S%10)C%11=NN(CC(CCCCCC)CCCCCCCC)N=C%119)S8)S7,48.3,21,2.3,1,1,CB,NA,80,100,,,
594,265,2019,11.15,10.66,16.59,0.675,0.952,IT-M,5.51,3.91,1.6,CCCCCCC(C=C1)=CC=C1C2(C3=CC=C(CCCCCC)C=C3)C4=CC5=C(C(C6=C5SC7=C6SC(/C=C8C(C(C=CC(C)=C9)=C9C\8=C(C#N)\C#N)=O)=C7)(C%10=CC=C(CCCCCC)C=C%10)C%11=CC=C(CCCCCC)C=C%11)C=C4C%12=C2C(SC(/C=C%13C(C(C=CC(C)=C%14)=C%14C\%13=C(C#N)/C#N)=O)=C%15)=C%15S%12,1456.01,PBDT-T,5.21,3.41,1.8,CC(SC1=C2C3=CC=C(CC(CC)CCCC)S3)=CC1=C(C4=CC=C(CC(CC)CCCC)S4)C5=C2C=C(S5)C6=CC=C(C7=C8C(C(C9=C(CC(CC)CCCC)SC(CC(CC)CCCC)=C9C8=O)=O)=C(C%10=CC=C(C)S%10)S7)S6,117,58.5,2,1,1,CB,DIO,100,100,,,
595,266,2019,8.3,8.1,16.2,0.596,0.84,ArSiID,5.37,3.86,1.51,O=C(C(C=CC=C1)=C1C/2=C(C#N)\C#N)C2=C/C3=CC([Si]4(CCCCCCCCC)CCCCCCCC)=C(S3)C5=C4C6=C(CCCCCC)C(SC7=C8[Si](CCCCCCCC)(CCCCCCCC)C9=C7SC(/C=C%10C(C(C=CC=C%11)=C%11C\%10=C(C#N)\C#N)=O)=C9)=C8C(CCCCCC)=C6S5,1450.28,J51,5.29,3.3,1.99,CC1=CC(C(S1)=C2C3=CC=C(CC(CCCCCC)CCCCCCCC)S3)=C(C4=C2C=C(C5=CC=C(C6=C(F)C(F)=C(C7=CC=C(C)S7)C8=NN(CCCCCCCC)N=C68)S5)S4)C9=CC=C(CC(CCCCCC)CCCCCCCC)S9,140,70,2,1,1,CF,NA,100,100,,,
596,266,2019,3.1,3,10.4,0.365,0.78,ArSiID-F,5.42,3.9,1.52,O=C(C(C=C(F)C(F)=C1)=C1C/2=C(C#N)\C#N)C2=C/C3=CC([Si]4(CCCCCCCCC)CCCCCCCC)=C(S3)C5=C4C6=C(CCCCCC)C(SC7=C8[Si](CCCCCCCC)(CCCCCCCC)C9=C7SC(/C=C%10C(C(C=C(F)C(F)=C%11)=C%11C\%10=C(C#N)\C#N)=O)=C9)=C8C(CCCCCC)=C6S5,1522.24,J51,5.29,3.3,1.99,CC1=CC(C(S1)=C2C3=CC=C(CC(CCCCCC)CCCCCCCC)S3)=C(C4=C2C=C(C5=CC=C(C6=C(F)C(F)=C(C7=CC=C(C)S7)C8=NN(CCCCCCCC)N=C68)S5)S4)C9=CC=C(CC(CCCCCC)CCCCCCCC)S9,140,70,2,1,1,CF,NA,NA,100,,,
597,266,2019,2.8,2.7,10,0.339,0.78,ArSiID-Cl,5.45,4.01,1.44,O=C(C(C=C(Cl)C(Cl)=C1)=C1C/2=C(C#N)\C#N)C2=C/C3=CC([Si]4(CCCCCCCCC)CCCCCCCC)=C(S3)C5=C4C6=C(CCCCCC)C(SC7=C8[Si](CCCCCCCC)(CCCCCCCC)C9=C7SC(/C=C%10C(C(C=C(Cl)C(Cl)=C%11)=C%11C\%10=C(C#N)\C#N)=O)=C9)=C8C(CCCCCC)=C6S5,1588.04,J51,5.29,3.3,1.99,CC1=CC(C(S1)=C2C3=CC=C(CC(CCCCCC)CCCCCCCC)S3)=C(C4=C2C=C(C5=CC=C(C6=C(F)C(F)=C(C7=CC=C(C)S7)C8=NN(CCCCCCCC)N=C68)S5)S4)C9=CC=C(CC(CCCCCC)CCCCCCCC)S9,140,70,2,1,1,CF,NA,NA,100,,,
598,266,2019,7.3,7.1,14.9,0.518,0.92,ArSiID,5.37,3.86,1.51,O=C(C(C=CC=C1)=C1C/2=C(C#N)\C#N)C2=C/C3=CC([Si]4(CCCCCCCCC)CCCCCCCC)=C(S3)C5=C4C6=C(CCCCCC)C(SC7=C8[Si](CCCCCCCC)(CCCCCCCC)C9=C7SC(/C=C%10C(C(C=CC=C%11)=C%11C\%10=C(C#N)\C#N)=O)=C9)=C8C(CCCCCC)=C6S5,1450.28,PBDB-T,5.33,3.29,2.04,CC(SC1=C2C3=CC=C(CC(CC)CCCC)S3)=CC1=C(C4=CC=C(CC(CC)CCCC)S4)C5=C2C=C(S5)C6=CC=C(C7=C8C(C(C9=C(CC(CC)CCCC)SC(CC(CC)CCCC)=C9C8=O)=O)=C(C%10=CC=C(C)S%10)S7)S6,117,58.5,2,1,1,CF,NA,NA,100,,,