ID,Ref,year,PCE_max(%),PCE_ave(%),Jsc(mA/cm2),FF,Voc(V),Nickname(n),-HOMO_n(eV),-LUMO_n(eV),Eg_n(eV),n(SMILES),M (g/mol),Nickname(p),-HOMO_p(eV),-LUMO_p(eV),Eg_p(eV),p(SMILES),Mw (kg/mol),Mn(kg/mol),PDI,p/n ratio (p),p/n ratio (n),Solvent,Additive,TA (oC),thick (nm),,Journal,DOI
930,425,2019,9.58,9.54,19.01,0.5861,0.86,DTFT9-FIC,5.49,4.01,1.48,O=C(C(C=C(F)C(F)=C1)=C1C/2=C(C#N)/C#N)C2=C/C3=CC(C4(C(C=C5)=CC=C5CCCCCC)C(C=C6)=CC=C6CCCCCC)=C(C7=C4C(C=C(C(C8=CC(SC9=C%10C(C%11=CC=C(CCCCCC)C=C%11)(C%12=CC=C(CCCCCC)C=C%12)C%13=C9SC(/C=C%14C(C(C=C(F)C(F)=C%15)=C%15C\%14=C(C#N)\C#N)=O)=C%13)=C%10C=C%168)=C%17)C%16(CCCCCCCC)CCCCCCCC)=C%17S7)S3,1812.46,PBDB-T,5.36,3.54,1.82,CC(SC1=C2C3=CC=C(CC(CC)CCCC)S3)=CC1=C(C4=CC=C(CC(CC)CCCC)S4)C5=C2C=C(S5)C6=CC=C(C7=C8C(C(C9=C(CC(CC)CCCC)SC(CC(CC)CCCC)=C9C8=O)=O)=C(C%10=CC=C(C)S%10)S7)S6,45,30,1.5,1,1.5,CB,DIO,150,,,,
931,426,2019,11.11,10.89,18.07,0.6697,0.918,o-F-ITIC,5.66,3.94,1.72,CCCCCCC(C=C1F)=CC=C1C2(C3=C(F)C=C(CCCCCC)C=C3)C4=CC5=C(C(C6=C5SC7=C6SC(/C=C8C(C(C=CC=C9)=C9C\8=C(C#N)\C#N)=O)=C7)(C%10=C(F)C=C(CCCCCC)C=C%10)C%11=C(F)C=C(CCCCCC)C=C%11)C=C4C%12=C2C(SC(/C=C%13C(C(C=CC=C%14)=C%14C\%13=C(C#N)/C#N)=O)=C%15)=C%15S%12,1499.92,PBDB-T,5.3,3.5,1.8,CC(SC1=C2C3=CC=C(CC(CC)CCCC)S3)=CC1=C(C4=CC=C(CC(CC)CCCC)S4)C5=C2C=C(S5)C6=CC=C(C7=C8C(C(C9=C(CC(CC)CCCC)SC(CC(CC)CCCC)=C9C8=O)=O)=C(C%10=CC=C(C)S%10)S7)S6,117,58.5,2,1.3,1,CB,DIO,60,,,,
932,426,2019,8.9,8.82,15.8,0.6379,0.883,m-F-ITIC,5.69,3.96,1.73,CCCCCCC(C=C1)=C(F)C=C1C2(C3=CC=C(CCCCCC)C(F)=C3)C4=CC5=C(C(C6=C5SC7=C6SC(/C=C8C(C(C=CC=C9)=C9C\8=C(C#N)\C#N)=O)=C7)(C%10=CC=C(CCCCCC)C(F)=C%10)C%11=CC=C(CCCCCC)C(F)=C%11)C=C4C%12=C2C(SC(/C=C%13C(C(C=CC=C%14)=C%14C\%13=C(C#N)/C#N)=O)=C%15)=C%15S%12,1499.92,PBDB-T,5.3,3.5,1.8,CC(SC1=C2C3=CC=C(CC(CC)CCCC)S3)=CC1=C(C4=CC=C(CC(CC)CCCC)S4)C5=C2C=C(S5)C6=CC=C(C7=C8C(C(C9=C(CC(CC)CCCC)SC(CC(CC)CCCC)=C9C8=O)=O)=C(C%10=CC=C(C)S%10)S7)S6,117,58.5,2,1.3,1,CB,DIO,60,,,,
933,427,2019,13.68,13.34,19.35,0.76,0.93,IT-2F,5.69,3.99,1.7,CCCCCCC(C=C1)=CC=C1C2(C3=CC=C(CCCCCC)C=C3)C4=CC5=C(C(C6=C5SC7=C6SC(/C=C8C(C(C=CC(F)=C9)=C9C\8=C(C#N)\C#N)=O)=C7)(C%10=CC=C(CCCCCC)C=C%10)C%11=CC=C(CCCCCC)C=C%11)C=C4C%12=C2C(SC(/C=C%13C(C(C=CC(F)=C%14)=C%14C\%13=C(C#N)/C#N)=O)=C%15)=C%15S%12,1463.94,PBDB-TF,5.48,3.6,1.88,CC(SC1=C2C3=CC(F)=C(CC(CC)CCCC)S3)=CC1=C(C4=CC(F)=C(CC(CC)CCCC)S4)C5=C2C=C(S5)C6=CC=C(C7=C8C(C(C9=C(CC(CC)CCCC)SC(CC(CC)CCCC)=C9C8=O)=O)=C(C%10=CC=C(C)S%10)S7)S6,38.6,19.3,2,1,1,CB,DIO,100,,,,
934,427,2019,13.74,13.65,19.8,0.75,0.92,IT-2Cl,5.7,4.02,1.68,CCCCCCC(C=C1)=CC=C1C2(C3=CC=C(CCCCCC)C=C3)C4=CC5=C(C(C6=C5SC7=C6SC(/C=C8C(C(C=CC(Cl)=C9)=C9C\8=C(C#N)\C#N)=O)=C7)(C%10=CC=C(CCCCCC)C=C%10)C%11=CC=C(CCCCCC)C=C%11)C=C4C%12=C2C(SC(/C=C%13C(C(C=CC(Cl)=C%14)=C%14C\%13=C(C#N)/C#N)=O)=C%15)=C%15S%12,1496.84,PBDB-TF,5.48,3.6,1.88,CC(SC1=C2C3=CC(F)=C(CC(CC)CCCC)S3)=CC1=C(C4=CC(F)=C(CC(CC)CCCC)S4)C5=C2C=C(S5)C6=CC=C(C7=C8C(C(C9=C(CC(CC)CCCC)SC(CC(CC)CCCC)=C9C8=O)=O)=C(C%10=CC=C(C)S%10)S7)S6,38.6,19.3,2,1,1,CB,DIO,100,,,,
935,427,2019,13.35,13.2,20.42,0.75,0.87,IT-4F,5.72,4.03,1.69,CCCCCCC(C=C1)=CC=C1C2(C3=CC=C(CCCCCC)C=C3)C4=CC5=C(C(C6=C5SC7=C6SC(/C=C8C(C(C=C(F)C(F)=C9)=C9C\8=C(C#N)\C#N)=O)=C7)(C%10=CC=C(CCCCCC)C=C%10)C%11=CC=C(CCCCCC)C=C%11)C=C4C%12=C2C(SC(/C=C%13C(C(C=C(F)C(F)=C%14)=C%14C\%13=C(C#N)/C#N)=O)=C%15)=C%15S%12,1499.92,PBDB-TF,5.48,3.6,1.88,CC(SC1=C2C3=CC(F)=C(CC(CC)CCCC)S3)=CC1=C(C4=CC(F)=C(CC(CC)CCCC)S4)C5=C2C=C(S5)C6=CC=C(C7=C8C(C(C9=C(CC(CC)CCCC)SC(CC(CC)CCCC)=C9C8=O)=O)=C(C%10=CC=C(C)S%10)S7)S6,38.6,19.3,2,1,1,CB,DIO,100,,,,
936,427,2019,12.87,12.65,22.12,0.74,0.79,IT-4Cl,5.73,4.08,1.65,CCCCCCC(C=C1)=CC=C1C2(C3=CC=C(CCCCCC)C=C3)C4=CC5=C(C(C6=C5SC7=C6SC(/C=C8C(C(C=C(Cl)C(Cl)=C9)=C9C\8=C(C#N)\C#N)=O)=C7)(C%10=CC=C(CCCCCC)C=C%10)C%11=CC=C(CCCCCC)C=C%11)C=C4C%12=C2C(SC(/C=C%13C(C(C=C(Cl)C(Cl)=C%14)=C%14C\%13=C(C#N)/C#N)=O)=C%15)=C%15S%12,1565.72,PBDB-TF,5.48,3.6,1.88,CC(SC1=C2C3=CC(F)=C(CC(CC)CCCC)S3)=CC1=C(C4=CC(F)=C(CC(CC)CCCC)S4)C5=C2C=C(S5)C6=CC=C(C7=C8C(C(C9=C(CC(CC)CCCC)SC(CC(CC)CCCC)=C9C8=O)=O)=C(C%10=CC=C(C)S%10)S7)S6,38.6,19.3,2,1,1,CB,DIO,100,,,,
937,427,2019,9.51,9.41,14.2,0.62,1.07,ITCC,5.63,3.82,1.81,O=C(C(SC=C1)=C1C/2=C(C#N)\C#N)C2=C/C3=CC(S4)=C(S3)C5=C4C6=CC(C(C(C=C7)=CC=C7CCCCCC)(C(C=C8)=CC=C8CCCCCC)C9=C%10SC%11=C9SC(/C=C%12C(C(SC=C%13)=C%13C\%12=C(C#N)\C#N)=O)=C%11)=C%10C=C6C5(C%14=CC=C(C=C%14)CCCCCC)C%15=CC=C(C=C%15)CCCCCC,1440,PBDB-TF,5.48,3.6,1.88,CC(SC1=C2C3=CC(F)=C(CC(CC)CCCC)S3)=CC1=C(C4=CC(F)=C(CC(CC)CCCC)S4)C5=C2C=C(S5)C6=CC=C(C7=C8C(C(C9=C(CC(CC)CCCC)SC(CC(CC)CCCC)=C9C8=O)=O)=C(C%10=CC=C(C)S%10)S7)S6,38.6,19.3,2,1,1,CB,DIO,100,,,,
938,427,2019,10.42,10.3,16.13,0.63,1.01,IT-M,5.64,3.9,1.74,CCCCCCC(C=C1)=CC=C1C2(C3=CC=C(CCCCCC)C=C3)C4=CC5=C(C(C6=C5SC7=C6SC(/C=C8C(C(C=CC(C)=C9)=C9C\8=C(C#N)\C#N)=O)=C7)(C%10=CC=C(CCCCCC)C=C%10)C%11=CC=C(CCCCCC)C=C%11)C=C4C%12=C2C(SC(/C=C%13C(C(C=CC(C)=C%14)=C%14C\%13=C(C#N)/C#N)=O)=C%15)=C%15S%12,1456.01,PBDB-TF,5.48,3.6,1.88,CC(SC1=C2C3=CC(F)=C(CC(CC)CCCC)S3)=CC1=C(C4=CC(F)=C(CC(CC)CCCC)S4)C5=C2C=C(S5)C6=CC=C(C7=C8C(C(C9=C(CC(CC)CCCC)SC(CC(CC)CCCC)=C9C8=O)=O)=C(C%10=CC=C(C)S%10)S7)S6,38.6,19.3,2,1,1,CB,DIO,100,,,,
939,427,2019,10.75,10.63,16.42,0.65,1,ITIC,5.66,3.93,1.73,CCCCCCC(C=C1)=CC=C1C2(C3=CC=C(CCCCCC)C=C3)C4=CC5=C(C(C6=C5SC7=C6SC(/C=C8C(C(C=CC=C9)=C9C\8=C(C#N)\C#N)=O)=C7)(C%10=CC=C(CCCCCC)C=C%10)C%11=CC=C(CCCCCC)C=C%11)C=C4C%12=C2C(SC(/C=C%13C(C(C=CC=C%14)=C%14C\%13=C(C#N)/C#N)=O)=C%15)=C%15S%12,1427.96,PBDB-TF,5.48,3.6,1.88,CC(SC1=C2C3=CC(F)=C(CC(CC)CCCC)S3)=CC1=C(C4=CC(F)=C(CC(CC)CCCC)S4)C5=C2C=C(S5)C6=CC=C(C7=C8C(C(C9=C(CC(CC)CCCC)SC(CC(CC)CCCC)=C9C8=O)=O)=C(C%10=CC=C(C)S%10)S7)S6,38.6,19.3,2,1,1,CB,DIO,100,,,,
940,428,2019,10.54,10.13,15.97,0.708,0.902,IT-2F,5.67,4.02,1.65,CCCCCCC(C=C1)=CC=C1C2(C3=CC=C(CCCCCC)C=C3)C4=CC5=C(C(C6=C5SC7=C6SC(/C=C8C(C(C=CC(F)=C9)=C9C\8=C(C#N)\C#N)=O)=C7)(C%10=CC=C(CCCCCC)C=C%10)C%11=CC=C(CCCCCC)C=C%11)C=C4C%12=C2C(SC(/C=C%13C(C(C=CC(F)=C%14)=C%14C\%13=C(C#N)/C#N)=O)=C%15)=C%15S%12,1463.94,PBT1-C,5.43,3.36,2.07,CC(SC1=C2C3=CC=C(CC(CCCC)CCCCCC)C=C3)=CC1=C(C4=CC=C(CC(CCCC)CCCCCC)C=C4)C5=C2C=C(C6=CC=C(C7=C8C(C(C9=C(CC(CC)CCCC)SC(CC(CC)CCCC)=C9C8=O)=O)=C(C%10=CC=C(C)S%10)S7)S6)S5,70,35,2,1,1,CB,DIO,130,100,,,
941,428,2019,12.71,12.51,17.7,0.751,0.915,TTPT-T-2F,5.6,4,1.6,CCCCCCC(C=C1)=CC=C1C(C2=C3SC4=C2SC(/C=C5/C(C6=C(C5=O)C=CC(F)=C6)=C(C#N)/C#N)=C4)(C7=CC=C(CCCCCC)C=C7)C8=C3C=C(C(C9=C%10SC(C%11=CC=C(/C=C%12C(C(C=CC(F)=C%13)=C%13C\%12=C(C#N)\C#N)=O)S%11)=C9)(C%14=CC=C(CCCCCC)C=C%14)C%15=CC=C(CCCCCC)C=C%15)C%10=C8,1489.97,PBT1-C,5.43,3.36,2.07,CC(SC1=C2C3=CC=C(CC(CCCC)CCCCCC)C=C3)=CC1=C(C4=CC=C(CC(CCCC)CCCCCC)C=C4)C5=C2C=C(C6=CC=C(C7=C8C(C(C9=C(CC(CC)CCCC)SC(CC(CC)CCCC)=C9C8=O)=O)=C(C%10=CC=C(C)S%10)S7)S6)S5,70,35,2,1,1.5,CB,DIO,100,100,,,
942,428,2019,10.71,10.58,16.57,0.671,0.933,T-TPT-T-2F,5.5,3.99,1.51,CCCCCCC(C=C1)=CC=C1C(C2=C3SC(C4=CC=C(/C=C5/C(C6=C(C5=O)C=CC(F)=C6)=C(C#N)/C#N)S4)=C2)(C7=CC=C(CCCCCC)C=C7)C8=C3C=C(C(C9=C%10SC(C%11=CC=C(/C=C%12C(C(C=CC(F)=C%13)=C%13C\%12=C(C#N)\C#N)=O)S%11)=C9)(C%14=CC=C(CCCCCC)C=C%14)C%15=CC=C(CCCCCC)C=C%15)C%10=C8,1516.01,PBT1-C,5.43,3.36,2.07,CC(SC1=C2C3=CC=C(CC(CCCC)CCCCCC)C=C3)=CC1=C(C4=CC=C(CC(CCCC)CCCCCC)C=C4)C5=C2C=C(C6=CC=C(C7=C8C(C(C9=C(CC(CC)CCCC)SC(CC(CC)CCCC)=C9C8=O)=O)=C(C%10=CC=C(C)S%10)S7)S6)S5,70,35,2,1,1,CB,DIO,130,100,,,
943,429,2019,11.2,11,23.3,0.689,0.692,FUIC,5.31,4.06,1.25,O=C1C(C=C(F)C(F)=C2)=C2C(/C1=C/C3=CC4=C(S3)C(C(C5=CC=C(CCCCCC)C=C5)(C6=C7SC8=C6SC9=C8C(C(C=C%10)=CC=C%10CCCCCC)(C(C=C%11)=CC=C%11CCCCCC)C%12=C9SC%13=C%12SC%14=C%13C(C(C=C%15)=CC=C%15CCCCCC)(C(C=C%16)=CC=C%16CCCCCC)C%17=C%14SC%18=C%17SC(/C=C%19C(C%20=C(C\%19=C(C#N)/C#N)C=C(C(F)=C%20)F)=O)=C%18)C%21=CC=C(CCCCCC)C=C%21)=C7S4)=C(C#N)/C#N,2032.75,PTB7-Th,5.2,3.6,1.6,O=C(OCC(CC)CCCC)C1=C(F)C2=C(C)SC(C3=CC4=C(C(C5=CC=C(CC(CC)CCCC)S5)=C(C=C(C)S6)C6=C4C7=CC=C(CC(CC)CCCC)S7)S3)=C2S1,124,72.9,1.700960219,1,1.5,CF,CN,140,,,,
944,429,2019,10.3,10,20.2,0.634,0.779,i-FUIC,5.31,3.99,1.32,O=C1C(C=C(F)C(F)=C2)=C2C(/C1=C/C3=CSC4=C3SC5=C4C(C6=CC=C(CCCCCC)C=C6)(C7=C5SC8=C7SC9=C8C(C(C=C%10)=CC=C%10CCCCCC)(C(C=C%11)=CC=C%11CCCCCC)C%12=C9SC%13=C%12SC%14=C%13C(C(C=C%15)=CC=C%15CCCCCC)(C(C=C%16)=CC=C%16CCCCCC)C%17=C%14SC%18=C%17SC(/C=C%19C(C%20=C(C\%19=C(C#N)/C#N)C=C(C(F)=C%20)F)=O)=C%18)C%21=CC=C(CCCCCC)C=C%21)=C(C#N)/C#N,2032.75,PTB7-Th,5.2,3.6,1.6,O=C(OCC(CC)CCCC)C1=C(F)C2=C(C)SC(C3=CC4=C(C(C5=CC=C(CC(CC)CCCC)S5)=C(C=C(C)S6)C6=C4C7=CC=C(CC(CC)CCCC)S7)S3)=C2S1,124,72.9,1.700960219,1,1.5,CF,DIO,NA,,,,
945,430,2019,13.1,12.8,20.6,0.759,0.835,IT-4F,5.71,4.15,1.56,CCCCCCC(C=C1)=CC=C1C2(C3=CC=C(CCCCCC)C=C3)C4=CC5=C(C(C6=C5SC7=C6SC(/C=C8C(C(C=C(F)C(F)=C9)=C9C\8=C(C#N)\C#N)=O)=C7)(C%10=CC=C(CCCCCC)C=C%10)C%11=CC=C(CCCCCC)C=C%11)C=C4C%12=C2C(SC(/C=C%13C(C(C=C(F)C(F)=C%14)=C%14C\%13=C(C#N)/C#N)=O)=C%15)=C%15S%12,1499.92,PM6,5.54,3.61,1.93,CC(SC1=C2C3=CC(F)=C(CC(CC)CCCC)S3)=CC1=C(C4=CC(F)=C(CC(CC)CCCC)S4)C5=C2C=C(S5)C6=CC=C(C7=C8C(C(C9=C(CC(CC)CCCC)SC(CC(CC)CCCC)=C9C8=O)=O)=C(C%10=CC=C(C)S%10)S7)S6,38.6,19.3,2,1,1,CB,DIO,100,,,,
946,430,2019,13.4,13.2,20.5,0.768,0.852,IT-4F,5.71,4.15,1.56,CCCCCCC(C=C1)=CC=C1C2(C3=CC=C(CCCCCC)C=C3)C4=CC5=C(C(C6=C5SC7=C6SC(/C=C8C(C(C=C(F)C(F)=C9)=C9C\8=C(C#N)\C#N)=O)=C7)(C%10=CC=C(CCCCCC)C=C%10)C%11=CC=C(CCCCCC)C=C%11)C=C4C%12=C2C(SC(/C=C%13C(C(C=C(F)C(F)=C%14)=C%14C\%13=C(C#N)/C#N)=O)=C%15)=C%15S%12,1499.92,PM7,5.52,3.55,1.97,CC(SC1=C2C3=CC(Cl)=C(CC(CC)CCCC)S3)=CC1=C(C4=CC(Cl)=C(CC(CC)CCCC)S4)C5=C2C=C(S5)C6=CC=C(C7=C8C(C(C9=C(CC(CC)CCCC)SC(CC(CC)CCCC)=C9C8=O)=O)=C(C%10=CC=C(C)S%10)S7)S6,44.88,25.5,1.76,1,1,CB,DIO,100,,,,
947,430,2019,15.5,15.2,24.5,0.746,0.848,Y6,5.62,4.11,1.51,O=C(C(C=C(F)C(F)=C1)=C1C/2=C(C#N)/C#N)C2=C/C3=C(CCCCCCCCCCC)C(SC4=C5N(CC(CC)CCCC)C6=C4C7=NSN=C7C8=C6N(CC(CC)CCCC)C9=C8SC%10=C9SC(/C=C%11/C(C%12=C(C%11=O)C=C(F)C(F)=C%12)=C(C#N)\C#N)=C%10CCCCCCCCCCC)=C5S3,1451.94,PM6,5.54,3.61,1.93,CC(SC1=C2C3=CC(F)=C(CC(CC)CCCC)S3)=CC1=C(C4=CC(F)=C(CC(CC)CCCC)S4)C5=C2C=C(S5)C6=CC=C(C7=C8C(C(C9=C(CC(CC)CCCC)SC(CC(CC)CCCC)=C9C8=O)=O)=C(C%10=CC=C(C)S%10)S7)S6,38.6,19.3,2,1,1.2,CF,CN,90,,,,
948,430,2019,15.4,15.1,24.2,0.728,0.875,Y6,5.62,4.11,1.51,O=C(C(C=C(F)C(F)=C1)=C1C/2=C(C#N)/C#N)C2=C/C3=C(CCCCCCCCCCC)C(SC4=C5N(CC(CC)CCCC)C6=C4C7=NSN=C7C8=C6N(CC(CC)CCCC)C9=C8SC%10=C9SC(/C=C%11/C(C%12=C(C%11=O)C=C(F)C(F)=C%12)=C(C#N)\C#N)=C%10CCCCCCCCCCC)=C5S3,1451.94,PM7,5.52,3.55,1.97,CC(SC1=C2C3=CC(Cl)=C(CC(CC)CCCC)S3)=CC1=C(C4=CC(Cl)=C(CC(CC)CCCC)S4)C5=C2C=C(S5)C6=CC=C(C7=C8C(C(C9=C(CC(CC)CCCC)SC(CC(CC)CCCC)=C9C8=O)=O)=C(C%10=CC=C(C)S%10)S7)S6,44.88,25.5,1.76,1,1.2,CF,CN,90,,,,
949,431,2019,11.71,11.48,25.68,0.6529,0.69,IEICO-4F,5.44,4.16,1.28,CCCCCCC(C=C1)=CC=C1C(C2=C3SC(C4=C(OCC(CC)CCCC)C=C(/C=C5C(C(C=C(F)C(F)=C6)=C6C\5=C(C#N)\C#N)=O)S4)=C2)(C7=CC=C(CCCCCC)C=C7)C8=C3C=C(C(C9=C%10SC(C(S%11)=C(C=C%11/C=C%12/C(C(C=C%13F)=C(C%12=O)C=C%13F)=C(C#N)/C#N)OCC(CCCC)CC)=C9)(C%14=CC=C(CCCCCC)C=C%14)C%15=CC=C(CCCCCC)C=C%15)C%10=C8,1808.42,PTB7-Th,5.24,3.66,1.58,O=C(OCC(CC)CCCC)C1=C(F)C2=C(C)SC(C3=CC4=C(C(C5=CC=C(CC(CC)CCCC)S5)=C(C=C(C)S6)C6=C4C7=CC=C(CC(CC)CCCC)S7)S3)=C2S1,124,72.9,1.700960219,1,1.5,CB,CN,NA,130,,,
950,432,2019,14,13.7,22.4,0.724,0.86,IPT-2F,5.51,3.96,1.55,FC1=CC(C(C2=C/C(S3)=CC4=C3C(C=C(C(C5=CC=C(CCCCCC)C=C5)(C6=CC=C(CCCCCC)C=C6)C7=C8SC9=C7N(CCCCCCCC)C%10=C9SC(/C=C%11C(C%12=C(C\%11=C(C#N)/C#N)C=CC(F)=C%12)=O)=C%10)C8=C%13)=C%13C4(C%14=CC=C(CCCCCC)C=C%14)C%15=CC=C(CCCCCC)C=C%15)=O)=C(C/2=C(C#N)\C#N)C=C1,1559.11,PBDB-T,5.33,3.29,2.04,CC(SC1=C2C3=CC=C(CC(CC)CCCC)S3)=CC1=C(C4=CC=C(CC(CC)CCCC)S4)C5=C2C=C(S5)C6=CC=C(C7=C8C(C(C9=C(CC(CC)CCCC)SC(CC(CC)CCCC)=C9C8=O)=O)=C(C%10=CC=C(C)S%10)S7)S6,117,58.5,2,1,1,CB,DIO,100,,,,
951,432,2019,11.4,11,19.7,0.662,0.874,IPTT-2F,5.46,4.04,1.42,O=C1C(C=C(F)C=C2)=C2C(/C1=C/C(S3)=CC(S4)=C3C5=C4C(C=C(C(C6=CC=C(CCCCCC)C=C6)(C7=CC=C(CCCCCC)C=C7)C8=C9SC%10=C8N(CCCCCCCC)C%11=C%10SC(/C=C%12C(C%13=C(C\%12=C(C#N)/C#N)C=CC(F)=C%13)=O)=C%11)C9=C%14)=C%14C5(C%15=CC=C(CCCCCC)C=C%15)C%16=CC=C(CCCCCC)C=C%16)=C(C#N)/C#N,1615.19,PBDB-T,5.33,3.29,2.04,CC(SC1=C2C3=CC=C(CC(CC)CCCC)S3)=CC1=C(C4=CC=C(CC(CC)CCCC)S4)C5=C2C=C(S5)C6=CC=C(C7=C8C(C(C9=C(CC(CC)CCCC)SC(CC(CC)CCCC)=C9C8=O)=O)=C(C%10=CC=C(C)S%10)S7)S6,117,58.5,2,1,1,CB,DIO,100,,,,
952,432,2019,12.3,12,20,0.693,0.894,IPTTT-2F,5.4,4.07,1.33,FC1=CC(C(C2=C/C3=CC(SC4=C5SC6=C4C(C7=CC=C(CCCCCC)C=C7)(C8=CC=C(CCCCCC)C=C8)C9=C6C=C(C(C%10=CC=C(CCCCCC)C=C%10)(C%11=CC=C(CCCCCC)C=C%11)C%12=C%13SC%14=C%12N(CCCCCCCC)C%15=C%14SC(/C=C%16C(C%17=C(C\%16=C(C#N)/C#N)C=CC(F)=C%17)=O)=C%15)C%13=C9)=C5S3)=O)=C(C/2=C(C#N)\C#N)C=C1,1671.27,PBDB-T,5.33,3.29,2.04,CC(SC1=C2C3=CC=C(CC(CC)CCCC)S3)=CC1=C(C4=CC=C(CC(CC)CCCC)S4)C5=C2C=C(S5)C6=CC=C(C7=C8C(C(C9=C(CC(CC)CCCC)SC(CC(CC)CCCC)=C9C8=O)=O)=C(C%10=CC=C(C)S%10)S7)S6,117,58.5,2,1,1,CB,DIO,100,,,,
953,433,2019,8.33,8.02,18.85,0.61,0.72,IEICO-4F,5.4,4.2,1.2,CCCCCCC(C=C1)=CC=C1C(C2=C3SC(C4=C(OCC(CC)CCCC)C=C(/C=C5C(C(C=C(F)C(F)=C6)=C6C\5=C(C#N)\C#N)=O)S4)=C2)(C7=CC=C(CCCCCC)C=C7)C8=C3C=C(C(C9=C%10SC(C(S%11)=C(C=C%11/C=C%12/C(C(C=C%13F)=C(C%12=O)C=C%13F)=C(C#N)/C#N)OCC(CCCC)CC)=C9)(C%14=CC=C(CCCCCC)C=C%14)C%15=CC=C(CCCCCC)C=C%15)C%10=C8,1808.42,PTB7-Th,5.2,3.6,1.6,O=C(OCC(CC)CCCC)C1=C(F)C2=C(C)SC(C3=CC4=C(C(C5=CC=C(CC(CC)CCCC)S5)=C(C=C(C)S6)C6=C4C7=CC=C(CC(CC)CCCC)S7)S3)=C2S1,124,72.9,1.700960219,1,1.5,CB,DIO,130,,,,
954,433,2019,9.26,9.16,17.13,0.62,0.87,ITIC,5.6,3.9,1.7,CCCCCCC(C=C1)=CC=C1C2(C3=CC=C(CCCCCC)C=C3)C4=CC5=C(C(C6=C5SC7=C6SC(/C=C8C(C(C=CC=C9)=C9C\8=C(C#N)\C#N)=O)=C7)(C%10=CC=C(CCCCCC)C=C%10)C%11=CC=C(CCCCCC)C=C%11)C=C4C%12=C2C(SC(/C=C%13C(C(C=CC=C%14)=C%14C\%13=C(C#N)/C#N)=O)=C%15)=C%15S%12,1427.96,PBDB-T,5.3,3.5,1.8,CC(SC1=C2C3=CC=C(CC(CC)CCCC)S3)=CC1=C(C4=CC=C(CC(CC)CCCC)S4)C5=C2C=C(S5)C6=CC=C(C7=C8C(C(C9=C(CC(CC)CCCC)SC(CC(CC)CCCC)=C9C8=O)=O)=C(C%10=CC=C(C)S%10)S7)S6,117,58.5,2,1,1.5,CB,DIO,130,,,,
955,433,2019,8.5,8.13,20.91,0.52,0.77,IEICO-4F,5.4,4.2,1.2,CCCCCCC(C=C1)=CC=C1C(C2=C3SC(C4=C(OCC(CC)CCCC)C=C(/C=C5C(C(C=C(F)C(F)=C6)=C6C\5=C(C#N)\C#N)=O)S4)=C2)(C7=CC=C(CCCCCC)C=C7)C8=C3C=C(C(C9=C%10SC(C(S%11)=C(C=C%11/C=C%12/C(C(C=C%13F)=C(C%12=O)C=C%13F)=C(C#N)/C#N)OCC(CCCC)CC)=C9)(C%14=CC=C(CCCCCC)C=C%14)C%15=CC=C(CCCCCC)C=C%15)C%10=C8,1808.42,PBDB-T,5.3,3.5,1.8,CC(SC1=C2C3=CC=C(CC(CC)CCCC)S3)=CC1=C(C4=CC=C(CC(CC)CCCC)S4)C5=C2C=C(S5)C6=CC=C(C7=C8C(C(C9=C(CC(CC)CCCC)SC(CC(CC)CCCC)=C9C8=O)=O)=C(C%10=CC=C(C)S%10)S7)S6,117,58.5,2,1,1.5,CB,DIO,130,,,,
956,434,2019,11.21,10.92,18.47,0.6463,0.94,ITIC-2C-β,5.3,3.71,1.59,O=C1C2=C(C(/C1=C/C3=CC(SC(C4=C5C=C6C(SC7=C8SC(/C=C9/C(C%10=C(C9=O)C(Cl)=CC=C%10)=C(C#N)\C#N)=C7)=C8C(C(C=C%11)=CC=C%11CCCCCC)(C6=C4)C(C=C%12)=CC=C%12CCCCCC)=C%13C5(C(C=C%14)=CC=C%14CCCCCC)C(C=C%15)=CC=C%15CCCCCC)=C%13S3)=C(C#N)\C#N)C=CC=C2Cl,1496.84,PBDB-T-2Cl,5.5,3.6,1.9,CC(SC1=C2C3=CC(Cl)=C(CC(CC)CCCC)S3)=CC1=C(C4=CC(Cl)=C(CC(CC)CCCC)S4)C5=C2C=C(S5)C6=CC=C(C7=C8C(C(C9=C(CC(CC)CCCC)SC(CC(CC)CCCC)=C9C8=O)=O)=C(C%10=CC=C(C)S%10)S7)S6,44.88,25.5,1.76,1,1,CB,DIO,NA,,,,
957,434,2019,12.23,11.98,18.91,0.735,0.88,α-ITIC-2C,5.29,3.77,1.52,O=C1C2=C(C(/C1=C/C3=CC(SC(C4=C5C=C6C(SC7=C8SC(/C=C9/C(C%10=C(C9=O)C=C(Cl)C(Cl)=C%10)=C(C#N)\C#N)=C7)=C8C(C(C=C%11)=CC=C%11CCCCCC)(C6=C4)C(C=C%12)=CC=C%12CCCCCC)=C%13C5(C(C=C%14)=CC=C%14CCCCCC)C(C=C%15)=CC=C%15CCCCCC)=C%13S3)=C(C#N)\C#N)C=CC=C2,1496.84,PBDB-T-2Cl,5.5,3.6,1.9,CC(SC1=C2C3=CC(Cl)=C(CC(CC)CCCC)S3)=CC1=C(C4=CC(Cl)=C(CC(CC)CCCC)S4)C5=C2C=C(S5)C6=CC=C(C7=C8C(C(C9=C(CC(CC)CCCC)SC(CC(CC)CCCC)=C9C8=O)=O)=C(C%10=CC=C(C)S%10)S7)S6,44.88,25.5,1.76,1,1,CB,DIO,NA,,,,
958,435,2019,7.59,7.41,17.2,0.562,0.8,Py-e-PDI,5.9,3.86,2.04,O=C(N1C(CCCCCC)CCCCCC)C2=C3C4=C(C=C2)C5=CC=C6C7=C(C(N(C(CCCCCC)CCCCCC)C6=O)=O)C=C(C#CC8=CC(C#CC9=CC(C(N%10C(CCCCCC)CCCCCC)=O)=C%11C(C%12=CC=C%11C%10=O)=C9C%13=CC=C%14C%15=C(C(N(C(CCCCCC)CCCCCC)C%14=O)=O)C=CC%12=C%13%15)=C%16C=CC%17=C(C#CC%18=CC(C(N%19C(CCCCCC)CCCCCC)=O)=C%20C%21=C%18C%22=CC=C%23C%24=C(C(N(C(CCCCCC)CCCCCC)C%23=O)=O)C=CC(C%21=CC=C%20C%19=O)=C%22%24)C=C(C#CC%25=CC(C(N%26C(CCCCCC)CCCCCC)=O)=C%27C%28=C%25C%29=CC=C%30C%31=C(C(N(C(CCCCCC)CCCCCC)C%30=O)=O)C=CC(C%28=CC=C%27C%26=O)=C%29%31)C%32=C%17C%16=C8C=C%32)C(C4=CC=C3C1=O)=C57,3310.5,PTB7-Th,5.22,3.66,1.56,O=C(OCC(CC)CCCC)C1=C(F)C2=C(C)SC(C3=CC4=C(C(C5=CC=C(CC(CC)CCCC)S5)=C(C=C(C)S6)C6=C4C7=CC=C(CC(CC)CCCC)S7)S3)=C2S1,124,72.9,1.700960219,1,1.5,CB,DIO,NA,,,,
959,436,2019,8.89,8.74,14.39,0.6439,0.96,ITIC,5.64,3.86,1.78,CCCCCCC(C=C1)=CC=C1C2(C3=CC=C(CCCCCC)C=C3)C4=CC5=C(C(C6=C5SC7=C6SC(/C=C8C(C(C=CC=C9)=C9C\8=C(C#N)\C#N)=O)=C7)(C%10=CC=C(CCCCCC)C=C%10)C%11=CC=C(CCCCCC)C=C%11)C=C4C%12=C2C(SC(/C=C%13C(C(C=CC=C%14)=C%14C\%13=C(C#N)/C#N)=O)=C%15)=C%15S%12,1427.96,PBTIBDTT,5.47,3.6,1.87,CC(SC1=C2C3=CC=C(CC(CC)CCCC)S3)=CC1=C(C4=CC=C(CC(CC)CCCC)S4)C5=C2C=C(S5)C6=CC(CCCCCCCCCC)=C(C7=CC8=C(C9=C(C(N(CC(CCCCCC)CCCCCCCC)C8=O)=O)C=C(C%10=C(CCCCCCCCCC)C=C(C)S%10)S9)S7)S6,90.64,44,2.06,1,1,CB,NA,NA,,,,
960,436,2019,9.01,8.87,13.49,0.7103,0.94,oF-ITIC,5.73,3.93,1.8,CCCCCCC(C=C1)=C(F)C=C1C2(C3=CC=C(CCCCCC)C(F)=C3)C4=CC5=C(C(C6=C5SC7=C6SC(/C=C8C(C(C=CC=C9)=C9C\8=C(C#N)\C#N)=O)=C7)(C%10=CC=C(CCCCCC)C(F)=C%10)C%11=CC=C(CCCCCC)C(F)=C%11)C=C4C%12=C2C(SC(/C=C%13C(C(C=CC=C%14)=C%14C\%13=C(C#N)/C#N)=O)=C%15)=C%15S%12,1499.92,PBTIBDTT,5.47,3.6,1.87,CC(SC1=C2C3=CC=C(CC(CC)CCCC)S3)=CC1=C(C4=CC=C(CC(CC)CCCC)S4)C5=C2C=C(S5)C6=CC(CCCCCCCCCC)=C(C7=CC8=C(C9=C(C(N(CC(CCCCCC)CCCCCCCC)C8=O)=O)C=C(C%10=C(CCCCCCCCCC)C=C(C)S%10)S9)S7)S6,90.64,44,2.06,1,1.2,CB,DIO,NA,,,,
961,436,2019,9.5,9.39,14.53,0.6811,0.96,mF-ITIC,5.66,3.88,1.78,CCCCCCC(C=C1F)=CC=C1C2(C3=C(F)C=C(CCCCCC)C=C3)C4=CC5=C(C(C6=C5SC7=C6SC(/C=C8C(C(C=CC=C9)=C9C\8=C(C#N)\C#N)=O)=C7)(C%10=C(F)C=C(CCCCCC)C=C%10)C%11=C(F)C=C(CCCCCC)C=C%11)C=C4C%12=C2C(SC(/C=C%13C(C(C=CC=C%14)=C%14C\%13=C(C#N)/C#N)=O)=C%15)=C%15S%12,1499.92,PBTIBDTT,5.47,3.6,1.87,CC(SC1=C2C3=CC=C(CC(CC)CCCC)S3)=CC1=C(C4=CC=C(CC(CC)CCCC)S4)C5=C2C=C(S5)C6=CC(CCCCCCCCCC)=C(C7=CC8=C(C9=C(C(N(CC(CCCCCC)CCCCCCCC)C8=O)=O)C=C(C%10=C(CCCCCCCCCC)C=C(C)S%10)S9)S7)S6,90.64,44,2.06,1,1,CB,NA,150,,,,
962,437,2019,8.84,8.63,16.91,0.659,0.775,TPDI3,5.85,3.81,2.04,O=C(N(C(CCCCCC)CCCCCC)C1=O)C2=CC(C3=C4C5=C(C6=C7C8=CC9=C6C(C(N(C(CCCCCC)CCCCCC)C9=O)=O)=C5)C%10=C(C7=C(C%11=C8C%12=C(C%13=C%14C=CC%15=C%13C(C(N(C(CCCCCC)CCCCCC)C%15=O)=O)=C%12)C%16=C(C%14=CC=C%17C(N(C(CCCCCC)CCCCCC)C%18=O)=O)C%17=C%18C=C%16%11)C=C%19C(N(C(CCCCCC)CCCCCC)C%20=O)=O)C%19=C%20C=C%103)=C%21C%22=C(C%23=C(C%24=CC(C%25=C(C%26=C%27C(C%28=C%29C%30=CC%31=C%32C(C%33=C%34C=C%32C(N(C(CCCCCC)CCCCCC)C%31=O)=O)=C%30C%35=C%28C=C(C(N(C(CCCCCC)CCCCCC)C%36=O)=O)C%37=C%36C=C(C%38=C%34C%39=CC%40=C%41C(C%42=CC=C%41C(N(C(CCCCCC)CCCCCC)C%40=O)=O)=C%39C%43=C%38C=C(C(N(C(CCCCCC)CCCCCC)C%44=O)=O)C%45=C%44C=CC%42=C%43%45)C%33=C%35%37)=CC%46=C%26C(C(N(C(CCCCCC)CCCCCC)C%46=O)=O)=C%25)C%47=C(C%27=C%29C=C%48C(N(C(CCCCCC)CCCCCC)C%49=O)=O)C%48=C%49C=C%47)=CC(C%50=C(C%51=C%52C(C%53=C%54C%55=CC%56=C%57C(C%58=C%59C=C%57C(N(C(CCCCCC)CCCCCC)C%56=O)=O)=C%55C%60=C%53C=C(C(N(C(CCCCCC)CCCCCC)C%61=O)=O)C%62=C%61C=C(C%63=C%59C%64=CC%65=C%66C(C%67=CC=C%66C(N(C(CCCCCC)CCCCCC)C%65=O)=O)=C%64C%68=C%63C=C(C(N(C(CCCCCC)CCCCCC)C%69=O)=O)C%70=C%69C=CC%67=C%68%70)C%58=C%60%62)=CC%71=C%51C(C(N(C(CCCCCC)CCCCCC)C%71=O)=O)=C%50)C%72=C(C%52=C%54C=C%73C(N(C(CCCCCC)CCCCCC)C%74=O)=O)C%73=C%74C=C%72)=C%24)C=C(C(N(C(CCCCCC)CCCCCC)C%75=O)=O)C%76=C%75C=C4C%21=C%23%76)C=CC1=C%222,6987.51,PTB7-Th,5.12,3.6,1.52,O=C(OCC(CC)CCCC)C1=C(F)C2=C(C)SC(C3=CC4=C(C(C5=CC=C(CC(CC)CCCC)S5)=C(C=C(C)S6)C6=C4C7=CC=C(CC(CC)CCCC)S7)S3)=C2S1,124,72.9,1.700960219,1,1,DCB,DIO,80,,,,