ID,Ref,year,PCE_max(%),PCE_ave(%),Jsc(mA/cm2),FF,Voc(V),Nickname(n),-HOMO_n(eV),-LUMO_n(eV),Eg_n(eV),n(SMILES),M (g/mol),Nickname(p),-HOMO_p(eV),-LUMO_p(eV),Eg_p(eV),p(SMILES),Mw (kg/mol),Mn(kg/mol),PDI,p/n ratio (p),p/n ratio (n),Solvent,Additive,TA (oC),thick (nm),,Journal,DOI
298,133,2018,4.19,4.19,10.38,0.4672,0.87,m-PIB,5.41,3.72,1.69,O=C(N(C(CCCCCC)CCCCCC)C1=O)C2=CC(C3=CC(C4(C5C6C=CC(C7=C(C8=CC=C(C9=O)C%10C8=C%11C=CC%10C(N9C(CCCCCC)CCCCCC)=O)C(C%11=CC=C%12C(N(C(CCCCCC)CCCCCC)C%13=O)=O)=C%12C%13=C7)=C5)C%14=C6C=CC(C%15=C(C%16=C%17C=CC%18C%16C(C(N(C(CCCCCC)CCCCCC)C%18=O)=O)=C%15)C%19=CC=C%20C%21=C%19C%17=CC=C%21C(N(C(CCCCCC)CCCCCC)C%20=O)=O)=C%14)=C(C%22C4C=C(C%23=C(C%24=CC=C(C%25=O)C%26C%24=C%27C=CC%26C(N%25C(CCCCCC)CCCCCC)=O)C(C%27=CC=C%28C(N(C(CCCCCC)CCCCCC)C%29=O)=O)=C%28C%29=C%23)C=C%22)C=C3)=C(C%30=C%31C=CC1C%302)C%32=CC=C%33C%34=C%32C%31=CC=C%34C(N(C(CCCCCC)CCCCCC)C%33=O)=O,3340.66,PTB7-Th,5.27,3.55,1.72,O=C(OCC(CC)CCCC)C1=C(F)C2=C(C)SC(C3=CC4=C(C(C5=CC=C(CC(CC)CCCC)S5)=C(C=C(C)S6)C6=C4C7=CC=C(CC(CC)CCCC)S7)S3)=C2S1,124,72.9,1.7,1,1.5,CB,NA,NA,88,,Chem. Eur. J.,DOI : 10.1002/chem.201705480
299,133,2018,5.83,5.83,12.32,0.5872,0.82,p-PIB,5.42,3.78,1.64,O=C(N(C(CCCCCC)CCCCCC)C1=O)C2=CC=C(C3=C4C=CC1C32)C5=C(C6=CC(C7C8C=CC(C9=C(C%10=C%11C=CC%12C%10C(C(N(C(CCCCCC)CCCCCC)C%12=O)=O)=C9)C%13=CC=C%14C%15=C%13C%11=CC=C%15C(N(C(CCCCCC)CCCCCC)C%14=O)=O)=C7)=C(C8(C%16C%17C=CC(C%18=C(C%19=CC=C(C%20=O)C%21C%19=C%22C=CC%21C(N%20C(CCCCCC)CCCCCC)=O)C(C%22=CC=C%23C(N(C(CCCCCC)CCCCCC)C%24=O)=O)=C%23C%24=C%18)=C%16)C%25=C%17C=CC(C%26=C(C%27=C%28C=CC%29C%27C(C(N(C(CCCCCC)CCCCCC)C%29=O)=O)=C%26)C%30=CC=C%31C%32=C%30C%28=CC=C%32C(N(C(CCCCCC)CCCCCC)C%31=O)=O)=C%25)C=C6)C=C%33C%34=C5C4=CC=C%34C(N(C(CCCCCC)CCCCCC)C%33=O)=O,3340.66,PTB7-Th,5.27,3.55,1.72,O=C(OCC(CC)CCCC)C1=C(F)C2=C(C)SC(C3=CC4=C(C(C5=CC=C(CC(CC)CCCC)S5)=C(C=C(C)S6)C6=C4C7=CC=C(CC(CC)CCCC)S7)S3)=C2S1,124,72.9,1.7,1,1.5,CB,NA,NA,73,,Chem. Eur. J.,DOI : 10.1002/chem.201705480
300,134,2011,0.19,0.17,0.81,0.34,0.71,NDI-2T,5.83,4.12,1.71,O=C(N(CC(CC)CCCC)C1=O)C2=C(C3=CC=C(C4=CC=CS4)S3)C=C(C(N5CC(CC)CCCC)=O)C6=C2C1=CC(C7=CC=C(C8=CC=CS8)S7)=C6C5=O,819.12,P3HT,5,3.1,1.9,CC1=CC(CCCCCC)=C(C)S1,21.1,11.6,1.82,1,2,CF,NA,NA,,,Chem. Mater.,10.1021/cm2019668
301,134,2011,0.09,0.09,0.45,0.33,0.64,NDI-3T,5.6,4.14,1.46,O=C(N(CC(CC)CCCC)C1=O)C2=C(C3=CC=C(C4=CC=C(C5=CC=CS5)S4)S3)C=C(C(N6CC(CC)CCCC)=O)C7=C2C1=CC(C8=CC=C(C9=CC=C(C%10=CC=CS%10)S9)S8)=C7C6=O,983.36,P3HT,5,3.1,1.9,CC1=CC(CCCCCC)=C(C)S1,21.1,11.6,1.82,1,3,CF,NA,NA,,,Chem. Mater.,10.1021/cm2019668
302,134,2011,1.5,1.45,3.43,0.53,0.82,NDI-3TH,5.53,4.05,1.48,O=C(N(CC(CC)CCCC)C1=O)C2=C(C3=CC=C(C4=CC=C(C5=CC=C(CCCCCC)S5)S4)S3)C=C(C(N6CC(CC)CCCC)=O)C7=C2C1=CC(C8=CC=C(C9=CC=C(C%10=CC=C(CCCCCC)S%10)S9)S8)=C7C6=O,1151.69,P3HT,5,3.1,1.9,CC1=CC(CCCCCC)=C(C)S1,21.1,11.6,1.82,1,3,CF,DIO,NA,,,Chem. Mater.,10.1021/cm2019668
303,135,2014,4.34,4.22,9.99,0.528,0.78,Bis-PDI-T-MO,5.65,3.84,1.81,O=C(N(CC(CC)CCCC)C1=O)C2=CC=C3C(C2=C1C=C4OC)=C4C5=CC=C(C(N6CC(CC)CCCC)=O)C7=C5C3=C(C8=CC=C(C(C=C9C(N(CC(CC)CCCC)C%10=O)=O)=C%11C%12=C9C%10=CC=C%12C%13=C(OC)C=C(C(N(CC(CC)CCCC)C%14=O)=O)C%15=C%14C=CC%11=C%13%15)S8)C=C7C6=O,1369.73,PBDTTT-C-T,5.11,3.25,1.86,O=C(C1=CC2=C(SC(C3=CC4=C(S3)C(C5=CC=C(S5)CC(CCCC)CC)=C6C=C(SC6=C4C7=CC=C(S7)CC(CCCC)CC)C)=C2S1)C)CC(CC)CCCC,56,20,2.8,1,1,DCB,DIO,NA,,,Chem. Mater.,10.1021/cm5006339
304,136,2015,6.08,6,12.83,0.5643,0.84,Bis-PDI-T,5.65,3.84,1.81,O=C(N(CC(CC)CCCC)C1=O)C2=CC=C3C(C2=C1C=C4OCOC)=C4C5=CC=C(C(N6CC(CC)CCCC)=O)C7=C5C3=C(C8=CC=C(C(C=C9C(N(CC(CC)CCCC)C%10=O)=O)=C%11C%12=C9C%10=CC=C%12C%13=C(OCOC)C=C(C(N(CC(CC)CCCC)C%14=O)=O)C%15=C%14C=CC%11=C%13%15)S8)C=C7C6=O,1429.78,PBDTTT-C-T,5.11,3.25,1.86,O=C(C1=CC2=C(SC(C3=CC4=C(S3)C(C5=CC=C(S5)CC(CCCC)CC)=C6C=C(SC6=C4C7=CC=C(S7)CC(CCCC)CC)C)=C2S1)C)CC(CC)CCCC,56,20,2.8,1,1,DCB,DIO,NA,,,Chem. Mater.,10.1021/cm504140c
305,137,2016,0.77,0.69,2.52,0.44,0.69,Ph-H,6.02,3.32,2.7,O=C1N(CCCCCC)C(C2=C1C=CC(C#CC3=CC=C(C#CC(C=C4)=CC5=C4C(N(C5=O)CCCCCC)=O)C6=NSN=C36)=C2)=O,642.77,P3HT,5,3.1,1.9,CC1=CC(CCCCCC)=C(C)S1,21.1,11.6,1.82,1,1,DCB,NA,NA,100,,Chem. Mater.,10.1021/acs.chemmater.5b04551
306,137,2016,0.16,0.15,1.03,0.31,0.51,Ph-D,6.02,3.32,2.7,O=C1N(CCCCCCCCCC)C(C2=C1C=CC(C#CC3=CC=C(C#CC(C=C4)=CC5=C4C(N(C5=O)CCCCCCCCCC)=O)C6=NSN=C36)=C2)=O,754.99,P3HT,5,3.1,1.9,CC1=CC(CCCCCC)=C(C)S1,21.1,11.6,1.82,1,1,DCB,NA,NA,100,,Chem. Mater.,10.1021/acs.chemmater.5b04551
307,137,2016,1.58,1.41,3.99,0.45,0.89,Ph-EH,6.02,3.32,2.7,O=C1N(CC(CC)CCCC)C(C2=C1C=CC(C#CC3=CC=C(C#CC(C=C4)=CC5=C4C(N(C5=O)CC(CC)CCCC)=O)C6=NSN=C36)=C2)=O,698.88,P3HT,5,3.1,1.9,CC1=CC(CCCCCC)=C(C)S1,21.1,11.6,1.82,1,1,DCB,NA,NA,100,,Chem. Mater.,10.1021/acs.chemmater.5b04551
308,137,2016,2.05,1.91,4.49,0.48,0.76,Ph-MH,6.01,3.31,2.7,O=C1N(C(C)CCCCC)C(C2=C1C=CC(C#CC3=CC=C(C#CC(C=C4)=CC5=C4C(N(C5=O)C(C)CCCCC)=O)C6=NSN=C36)=C2)=O,670.83,P3HT,5,3.1,1.9,CC1=CC(CCCCCC)=C(C)S1,21.1,11.6,1.82,1,1,DCB,NA,NA,100,,Chem. Mater.,10.1021/acs.chemmater.5b04551
309,137,2016,0.11,0.09,0.55,0.29,0.66,Ph-Ipop,6.02,3.32,2.7,O=C1N(CCCOC(C)C)C(C2=C1C=CC(C#CC3=CC=C(C#CC(C=C4)=CC5=C4C(N(C5=O)CCCOC(C)C)=O)C6=NSN=C36)=C2)=O,674.77,P3HT,5,3.1,1.9,CC1=CC(CCCCCC)=C(C)S1,21.1,11.6,1.82,1,1,DCB,NA,NA,100,,Chem. Mater.,10.1021/acs.chemmater.5b04551
310,137,2016,0.38,0.35,1.44,0.36,0.72,Th-EH,5.98,3.4,2.58,O=C1N(CCCCCC)C(C2=C1C=C(C#CC3=CC=C(C#CC(S4)=CC5=C4C(N(C5=O)CCCCCC)=O)C6=NSN=C36)S2)=O,654.82,P3HT,5,3.1,1.9,CC1=CC(CCCCCC)=C(C)S1,21.1,11.6,1.82,1,1,DCB,NA,NA,100,,Chem. Mater.,10.1021/acs.chemmater.5b04551
311,137,2016,0.32,0.28,1.44,0.42,0.47,Py-EH,6.18,3.42,2.76,O=C1N(CCCCCC)C(C2=C1N=CC(C#CC3=CC=C(C#CC(C=C4)=NC5=C4C(N(C5=O)CCCCCC)=O)C6=NSN=C36)=C2)=O,644.75,P3HT,5,3.1,1.9,CC1=CC(CCCCCC)=C(C)S1,21.1,11.6,1.82,1,1,DCB,NA,NA,100,,Chem. Mater.,10.1021/acs.chemmater.5b04551
312,138,2016,5.1,5,11.2,0.51,0.88,FBM,6.25,4.14,2.11,CCCCCCCCC1(CCCCCCCC)C2=C(C=CC(C3=CC=C(/C=C(C#N)\C#N)C4=NSN=C34)=C2)C5=C1C=C(C6=CC=C(/C=C(C#N)\C#N)C7=NSN=C67)C=C5,811.08,PTB7-Th,5.22,3.64,1.58,O=C(OCC(CC)CCCC)C1=C(F)C2=C(C)SC(C3=CC4=C(C(C5=CC=C(CC(CC)CCCC)S5)=C(C=C(C)S6)C6=C4C7=CC=C(CC(CC)CCCC)S7)S3)=C2S1,124,72.9,1.7,1,1.5,CB,CN,NA,,,Chem. Mater.,10.1021/acs.chemmater.6b00131
313,138,2016,5.3,5,10.6,0.53,0.88,CBM,6.05,4.13,1.92,CCCCCCCCC(CCCCCCCC)N1C2=C(C=CC(C3=CC=C(/C=C(C#N)\C#N)C4=NSN=C34)=C2)C5=C1C=C(C6=CC=C(/C=C(C#N)\C#N)C7=NSN=C67)C=C5,826.1,PTB7-Th,5.22,3.64,1.58,O=C(OCC(CC)CCCC)C1=C(F)C2=C(C)SC(C3=CC4=C(C(C5=CC=C(CC(CC)CCCC)S5)=C(C=C(C)S6)C6=C4C7=CC=C(CC(CC)CCCC)S7)S3)=C2S1,124,72.9,1.7,1,2.3,CB,DIO,NA,,,Chem. Mater.,10.1021/acs.chemmater.6b00131
314,138,2016,5,4.8,11.9,0.6,0.66,CDTBM,5.69,4.28,1.41,CCCCCCCCC1(CCCCCCCC)C2=C(SC(C3=CC=C(/C=C(C#N)/C#N)C4=NSN=C34)=C2)C5=C1C=C(C6=CC=C(/C=C(C#N)\C#N)C7=NSN=C67)S5,823.13,PTB7-Th,5.22,3.64,1.58,O=C(OCC(CC)CCCC)C1=C(F)C2=C(C)SC(C3=CC4=C(C(C5=CC=C(CC(CC)CCCC)S5)=C(C=C(C)S6)C6=C4C7=CC=C(CC(CC)CCCC)S7)S3)=C2S1,124,72.9,1.7,1,1.5,CB,CN,NA,,,Chem. Mater.,10.1021/acs.chemmater.6b00131
315,139,2016,4.66,4.46,7.3,0.629,0.965,SF-OR,5.5,3.25,2.25,O=C(/C(S1)=C/C(S2)=C(CCCCCCCC)C=C2C(C=C3)=CC4=C3C5=CC=C(C6=CC(CCCCCCCC)=C(/C=C7SC(N(CCCCCCCC)C\7=O)=S)S6)C=C5C84C9=CC(C%10=CC(CCCCCCCC)=C(/C=C%11SC(N(CCCCCCCC)C\%11=O)=S)S%10)=CC=C9C%12=C8C=C(C%13=CC(CCCCCCCC)=C(/C=C%14SC(N(CCCCCCCC)C\%14=O)=S)S%13)C=C%12)N(CCCCCCCC)C1=S,2115.32,P3HT,5,3.1,1.9,CC1=CC(CCCCCC)=C(C)S1,21.1,11.6,1.82,1,0.5,CF,NA,NA,,,Chem. Mater.,10.1021/acs.chemmater.6b03323
316,139,2016,4.48,4.42,7.58,0.633,0.912,SF-ORCN,5.55,3.29,2.26,O=C(/C(S/1)=C/C(S2)=C(CCCCCCCC)C=C2C(C=C3)=CC4=C3C5=CC=C(C6=CC(CCCCCCCC)=C(/C=C7S/C(N(CCCCCCCC)C\7=O)=C(C#N)/C#N)S6)C=C5C84C9=CC(C%10=CC(CCCCCCCC)=C(/C=C%11S/C(N(CCCCCCCC)C\%11=O)=C(C#N)/C#N)S%10)=CC=C9C%12=C8C=C(C%13=CC(CCCCCCCC)=C(/C=C%14S/C(N(CCCCCCCC)C\%14=O)=C(C#N)/C#N)S%13)C=C%12)N(CCCCCCCC)C1=C(C#N)/C#N,2243.27,P3HT,5,3.1,1.9,CC1=CC(CCCCCC)=C(C)S1,21.1,11.6,1.82,1,0.5,CF,NA,NA,,,Chem. Mater.,10.1021/acs.chemmater.6b03323
317,140,2017,5.85,5.58,11.9,0.57,0.82,bTPB6,5.92,3.79,2.13,O=C(N(C(CCCCCC)CCCCCC)C1=O)C2=CC=C(C3=C4C=CC1C32)C5=C(C(S6)=CC7=C6C(C8=CC=C(C9=CC%10C%11C%12=C9C%13=CC=C(C(N%14C(CCCCCC)CCCCCC)=O)C%15=C%13C(C%12=CC=C%11C(N(C(CCCCCC)CCCCCC)C%10=O)=O)=CC=C%15C%14=O)S8)=C(C=C(C%16=CC%17=C%18C(C%19=CC=C%20C%21=C%19C%17=CC=C%21C(N(C(CCCCCC)CCCCCC)C%20=O)=O)=CC=C(C%22=O)C%18C%16C(N%22C(CCCCCC)CCCCCC)=O)S%23)C%23=C7C%24=CC=C(C%25=C(C%26=C%27C=CC%28C%26C(C(N(C(CCCCCC)CCCCCC)C%28=O)=O)=C%25)C%29=CC=C%30C%31=C%29C%27=CC=C%31C(N(C(CCCCCC)CCCCCC)C%30=O)=O)S%24)C=C%32C%33=C5C4=CC=C%33C(N(C(CCC)CCC)C%32=O)=O,3290.58,PTB7-Th,5.22,3.64,1.58,O=C(OCC(CC)CCCC)C1=C(F)C2=C(C)SC(C3=CC4=C(C(C5=CC=C(CC(CC)CCCC)S5)=C(C=C(C)S6)C6=C4C7=CC=C(CC(CC)CCCC)S7)S3)=C2S1,124,72.9,1.7,1,0.67,CB,NA,NA,,,Chem. Mater.,10.1021/acs.chemmater.6b04287
318,140,2017,7.69,7.56,14.7,0.56,0.92,bTPB6-C,6.21,3.75,2.46,O=C(N(C(CCCCCC)CCCCCC)C1=O)C2=CC3=C(C4=C5C=CC1C42)C6=C(C7=C3SC8=C7C(C(S9)=CC%10=C9C%11=C(C%12=C%10C=C(C%13=O)C%14C%12=C%15C=CC%14C(N%13C(CCCCCC)CCCCCC)=O)C(C%15=CC=C%16C(N(C(CCCCCC)CCCCCC)C%17=O)=O)=C%16C%17=C%11)=C%18C(C%19=C(C(C=C%20C(N(C(CCCCCC)CCCCCC)C%21=O)=O)=C%22C%23=C%20C%21=CC=C%23C%24=CC=C(C%25=O)C%26C%24=C%22C%19=CC%26C(N%25C(CCCCCC)CCCCCC)=O)S%18)=C8C(S%27)=CC%28=C%27C%29=CC%30C%31C%32=C%29C%33=C%28C=C(C(N%34C(CCCCCC)CCCCCC)=O)C%35=C%33C(C%32=CC=C%31C(N(C(CCCCCC)CCCCCC)C%30=O)=O)=CC=C%35C%34=O)C=C%36C%37=C6C5=CC=C%37C(N(C(CCC)CCC)C%36=O)=O,3282.52,PTB7-Th,5.22,3.64,1.58,O=C(OCC(CC)CCCC)C1=C(F)C2=C(C)SC(C3=CC4=C(C(C5=CC=C(CC(CC)CCCC)S5)=C(C=C(C)S6)C6=C4C7=CC=C(CC(CC)CCCC)S7)S3)=C2S1,124,72.9,1.7,1,0.67,CB,DIO/DPE,NA,,,Chem. Mater.,10.1021/acs.chemmater.6b04287
319,141,2017,3.39,3.28,7.71,0.4563,0.96,DTNIC6,5.87,3.92,1.95,O=C(C(C=CC=C1)=C1C/2=C(C#N)/C#N)C2=C/C3=CC4=C(S3)C5=C(C=CC6=C5C=CC7=C6C(SC(/C=C8C(C(C=CC=C9)=C9C\8=C(C#N)\C#N)=O)=C%10)=C%10C7(CCCCCC)CCCCCC)C4(CCCCCC)CCCCCC,1061.46,PBDB-T,5.33,2.92,2.41,CC(SC1=C2C3=CC=C(CC(CC)CCCC)S3)=CC1=C(C4=CC=C(CC(CC)CCCC)S4)C5=C2C=C(S5)C6=CC=C(C7=C8C(C(C9=C(CC(CC)CCCC)SC(CC(CC)CCCC)=C9C8=O)=O)=C(C%10=CC=C(C)S%10)S7)S6,117,58.5,2,1,1,CB,NA,NA,,,Chem. Mater.,10.1021/acs.chemmater.7b02887
320,141,2017,9.03,8.89,12.92,0.7284,0.96,DTNIC8,5.91,3.93,1.98,O=C(C(C=CC=C1)=C1C/2=C(C#N)/C#N)C2=C/C3=CC4=C(S3)C5=C(C=CC6=C5C=CC7=C6C(SC(/C=C8C(C(C=CC=C9)=C9C\8=C(C#N)\C#N)=O)=C%10)=C%10C7(CC(CC)CCCC)CC(CC)CCCC)C4(CC(CC)CCCC)CC(CC)CCCC,1173.68,PBDB-T,5.33,2.92,2.41,CC(SC1=C2C3=CC=C(CC(CC)CCCC)S3)=CC1=C(C4=CC=C(CC(CC)CCCC)S4)C5=C2C=C(S5)C6=CC=C(C7=C8C(C(C9=C(CC(CC)CCCC)SC(CC(CC)CCCC)=C9C8=O)=O)=C(C%10=CC=C(C)S%10)S7)S6,117,58.5,2,1,1,CB,NA,NA,,,Chem. Mater.,10.1021/acs.chemmater.7b02887
321,142,2017,6.34,6.24,11.77,0.5229,1.013,IffBR,5.71,3.77,1.94,O=C(/C(S1)=C/C(C2=NSN=C32)=C(F)C(F)=C3C(S4)=CC5=C4C6=CC(C(C7=CC=C(CCCCCC)C=C7)(C8=CC=C(CCCCCC)C=C8)C9=C%10SC(C%11=C(F)C(F)=C(/C=C%12SC(N(CC)C\%12=O)=S)C%13=NSN=C%11%13)=C9)=C%10C=C6C5(C%14=CC=C(CCCCCC)C=C%14)C%15=CC=C(CCCCCC)C=C%15)N(CC)C1=S,1590.15,PBTA-BO,5.31,2.89,2.42,CC1=CC2=C(S1)C(C3=CC(CCCCCC)=C(CCCCCC)S3)=C4C=C(SC4=C2C5=CC(CCCCCC)=C(CCCCCC)S5)C6=CC=C(S6)C7=C(C(F)=C(C8=NN(N=C87)CC(CCCC)CCCCCC)C9=CC=C(S9)C)F,100,50,2,1,1.6,CB,NA,NA,,,Chem. Mater.,10.1021/acs.chemmater.7b02228
322,143,2018,6.91,6.46,13.5,0.606,0.846,IHIC-N,5.57,3.8,1.77,O=C(C(C=CC=C1)=C1C/2=C(C#N)/C#N)C2=C/C(S3)=CC4=C3C(C=C(C=C(C(C5=CC=C(CCCCCC)C=C5)(C6=CC=C(CCCCCC)C=C6)C7=C8SC(/C=C9C(C(C=CC=C%10)=C%10C\9=C(C#N)\C#N)=O)=C7)C8=C%11)C%11=C%12)=C%12C4(C%13=CC=C(CCCCCC)C=C%13)C%14=CC=C(CCCCCC)C=C%14,1365.85,PTB7-Th,5.2,3.59,1.61,O=C(OCC(CC)CCCC)C1=C(F)C2=C(C)SC(C3=CC4=C(C(C5=CC=C(CC(CC)CCCC)S5)=C(C=C(C)S6)C6=C4C7=CC=C(CC(CC)CCCC)S7)S3)=C2S1,124,72.9,1.7,1,1.5,DCB,DIO,NA,85,,Chem. Mater.,10.1021/acs.chemmater.7b04499
323,143,2018,10.6,10.2,19.4,0.725,0.752,IHIC,5.45,3.93,1.52,O=C(C(C=CC=C1)=C1C/2=C(C#N)/C#N)C2=C/C(S3)=CC4=C3C(SC5=C6SC7=C5C(C8=CC=C(CCCCCC)C=C8)(C9=CC=C(CCCCCC)C=C9)C%10=C7SC(/C=C%11C(C(C=CC=C%12)=C%12C\%11=C(C#N)\C#N)=O)=C%10)=C6C4(C%13=CC=C(CCCCCC)C=C%13)C%14=CC=C(CCCCCC)C=C%14,1377.9,PTB7-Th,5.2,3.59,1.61,O=C(OCC(CC)CCCC)C1=C(F)C2=C(C)SC(C3=CC4=C(C(C5=CC=C(CC(CC)CCCC)S5)=C(C=C(C)S6)C6=C4C7=CC=C(CC(CC)CCCC)S7)S3)=C2S1,124,72.9,1.7,1,1.5,DCB,NA,NA,85,,Chem. Mater.,10.1021/acs.chemmater.7b04499
324,144,2018,7.31,7.21,12.69,0.576,1,NCIC,5.37,3.73,1.64,O=C(C(C=CC=C1)=C1C/2=C(C#N)/C#N)C2=C/C(S3)=CC4=C3C5=C(C(C=C(CCCCCCCCCCCC)C6=C7C(CCCCCCCCCCCC)=CC8=C6SC9=C8C(C%10=CC=C(CCCCCC)C=C%10)(C%11=CC=C(CCCCCC)C=C%11)C%12=C9SC(/C=C%13C(C(C=CC=C%14)=C%14C\%13=C(C#N)\C#N)=O)=C%12)=C7S5)C4(C%15=CC=C(CCCCCC)C=C%15)C%16=CC=C(CCCCCC)C=C%16,1814.66,PBDB-T,5.36,3.54,1.82,CC(SC1=C2C3=CC=C(CC(CC)CCCC)S3)=CC1=C(C4=CC=C(CC(CC)CCCC)S4)C5=C2C=C(S5)C6=CC=C(C7=C8C(C(C9=C(CC(CC)CCCC)SC(CC(CC)CCCC)=C9C8=O)=O)=C(C%10=CC=C(C)S%10)S7)S6,45,30,1.5,1,1,CB,DIO,NA,,,Chem. Mater.,10.1021/acs.chemmater.8b01089
325,144,2018,7.52,7.44,15.19,0.563,0.88,NCFIC,5.43,3.94,1.49,O=C(C(C=C(F)C(F)=C1)=C1C/2=C(C#N)/C#N)C2=C/C(S3)=CC4=C3C5=C(C(C=C(CCCCCCCCCCCC)C6=C7C(CCCCCCCCCCCC)=CC8=C6SC9=C8C(C%10=CC=C(CCCCCC)C=C%10)(C%11=CC=C(CCCCCC)C=C%11)C%12=C9SC(/C=C%13C(C(C=C(F)C(F)=C%14)=C%14C\%13=C(C#N)\C#N)=O)=C%12)=C7S5)C4(C%15=CC=C(CCCCCC)C=C%15)C%16=CC=C(CCCCCC)C=C%16,1886.63,PBDB-T,5.36,3.54,1.82,CC(SC1=C2C3=CC=C(CC(CC)CCCC)S3)=CC1=C(C4=CC=C(CC(CC)CCCC)S4)C5=C2C=C(S5)C6=CC=C(C7=C8C(C(C9=C(CC(CC)CCCC)SC(CC(CC)CCCC)=C9C8=O)=O)=C(C%10=CC=C(C)S%10)S7)S6,45,30,1.5,1,1,CB,DIO,NA,,,Chem. Mater.,10.1021/acs.chemmater.8b01089
326,145,2018,9.6,9.2,16.5,0.66,0.88,SN6IC,5.38,3.93,1.45,O=C(C(C=CC=C1)=C1C/2=C(C#N)/C#N)C2=C/C(S3)=CC4=C3C(SC5=C6SC7=C5N(C(CCCCCCCC)CCCCCCCC)C8=C7SC(/C=C9C(C(C=CC=C%10)=C%10C\9=C(C#N)\C#N)=O)=C8)=C6N4C(CCCCCCCC)CCCCCCCC,1215.75,PBDB-T,5.33,3.53,1.8,CC(SC1=C2C3=CC=C(CC(CC)CCCC)S3)=CC1=C(C4=CC=C(CC(CC)CCCC)S4)C5=C2C=C(S5)C6=CC=C(C7=C8C(C(C9=C(CC(CC)CCCC)SC(CC(CC)CCCC)=C9C8=O)=O)=C(C%10=CC=C(C)S%10)S7)S6,117,58.5,2,1,1,CB,DIO,NA,,,Chem. Mater.,10.1021/acs.chemmater.8b02276
327,145,2018,13.2,12.5,23.2,0.73,0.78,SN6IC-4F,5.52,4.11,1.41,O=C(C(C=C(F)C(F)=C1)=C1C/2=C(C#N)/C#N)C2=C/C(S3)=CC4=C3C(SC5=C6SC7=C5N(C(CCCCCCCC)CCCCCCCC)C8=C7SC(/C=C9C(C(C=C(F)C(F)=C%10)=C%10C\9=C(C#N)\C#N)=O)=C8)=C6N4C(CCCCCCCC)CCCCCCCC,1287.71,PBDB-T,5.33,3.53,1.8,CC(SC1=C2C3=CC=C(CC(CC)CCCC)S3)=CC1=C(C4=CC=C(CC(CC)CCCC)S4)C5=C2C=C(S5)C6=CC=C(C7=C8C(C(C9=C(CC(CC)CCCC)SC(CC(CC)CCCC)=C9C8=O)=O)=C(C%10=CC=C(C)S%10)S7)S6,117,58.5,2,1,1,CB,DIO,NA,,,Chem. Mater.,10.1021/acs.chemmater.8b02276
328,146,2017,2.31,2.28,7.03,0.313,1.033,T1,6.05,3.71,2.34,O=C(N(C(CCCCC)CCCCC)C1=O)C2=CC=C(C3=C4C(C5=CC6=C([C@H]7C(C=CC=C8)=C8[C@@H]6C9=C7C=CC=C9)C=C5%10)=CC1C32)C%11=CC=C%12C%13=C%11C4=C%10C=C%13C(N(C(CCCCC)CCCCC)C%12=O)=O,951.26,PTB7-Th,5.2,3.59,1.61,O=C(OCC(CC)CCCC)C1=C(F)C2=C(C)SC(C3=CC4=C(C(C5=CC=C(CC(CC)CCCC)S5)=C(C=C(C)S6)C6=C4C7=CC=C(CC(CC)CCCC)S7)S3)=C2S1,124,72.9,1.7,1,1,CF,NA,NA,,,Chem. Asian J.,DOI : 10.1002/asia.201700440
329,146,2017,6.15,6.04,12.8,0.492,0.96,T2,6.09,3.73,2.36,O=C(N(C(CCCCC)CCCCC)C1=O)C2=CC=C(C3=C4C(C5=CC6=C([C@H]7C(C=C(C8=C(C9=C%10C=C(C%11=O)C%12C9=C%13C=CC%12C(N%11C(CCCCC)CCCCC)=O)C(C%13=CC=C%14C(N(C(CCCCC)CCCCC)C%15=O)=O)=C%14C%15=C8)C%10=C%16)=C%16[C@@H]6C%17=C7C=CC=C%17)C=C5%18)=CC1C32)C%19=CC=C%20C%21=C%19C4=C%18C=C%21C(N(C(CCCCC)CCCCC)C%20=O)=O,1648.2,PTB7-Th,5.2,3.59,1.61,O=C(OCC(CC)CCCC)C1=C(F)C2=C(C)SC(C3=CC4=C(C(C5=CC=C(CC(CC)CCCC)S5)=C(C=C(C)S6)C6=C4C7=CC=C(CC(CC)CCCC)S7)S3)=C2S1,124,72.9,1.7,1,1,CF,DIO/CN,NA,,,Chem. Asian J.,DOI : 10.1002/asia.201700440
330,146,2017,5.26,5.13,12.74,0.446,0.902,T3,6.1,3.73,2.37,O=C(N(C(CCCCC)CCCCC)C1=O)C2=CC=C(C3=C4C(C5=CC6=C([C@H]7C(C=C(C8=C(C9=C%10C=C(C%11=O)C%12C9=C%13C=CC%12C(N%11C(CCCCC)CCCCC)=O)C(C%13=CC=C%14C(N(C(CCCCC)CCCCC)C%15=O)=O)=C%14C%15=C8)C%10=C%16)=C%16[C@@H]6C%17=C7C=C(C(C=C%18C(N(C(CCCCC)CCCCC)C%19=O)=O)=C%20C%21=C%18C%19=CC=C%21C%22=CC=C(C%23=O)C%24C%22=C%20C%25=CC%24C(N%23C(CCCCC)CCCCC)=O)C%25=C%17)C=C5%26)=CC1C32)C%27=CC=C%28C%29=C%27C4=C%26C=C%29C(N(C(CCCCC)CCCCC)C%28=O)=O,2345.13,PTB7-Th,5.2,3.59,1.61,O=C(OCC(CC)CCCC)C1=C(F)C2=C(C)SC(C3=CC4=C(C(C5=CC=C(CC(CC)CCCC)S5)=C(C=C(C)S6)C6=C4C7=CC=C(CC(CC)CCCC)S7)S3)=C2S1,124,72.9,1.7,1,1,CF,CN,NA,,,Chem. Asian J.,DOI : 10.1002/asia.201700440
331,147,2015,0.1,0.1,0.99,0.35,0.42,M6,5.9,3.6,2.3,CCCCC(CC)CC(C1=C2C=CC=C1)C3=C2C=CC(C4=CC=C(/C=C(C#N)/C#N)C5=NSN=C45)=C3,488.65,P3HT,5,3.1,1.9,CC1=CC(CCCCCC)=C(C)S1,21.1,11.6,1.82,1,1.5,DCB,NA,85,,,ChemPhysChem,10.1002/cphc.201402568
332,147,2015,0.4,0.4,2.3,0.36,0.48,M10,5.7,3.6,2.1,CCCCC(CC)CN1C2=C(SC=C2)C3=C1C=C(C4=CC=C(/C=C(C#N)/C#N)C5=NSN=C45)S3,501.69,P3HT,5,3.1,1.9,CC1=CC(CCCCCC)=C(C)S1,21.1,11.6,1.82,1,1.5,DCB,NA,110,,,ChemPhysChem,10.1002/cphc.201402568
333,147,2015,0.3,0.3,1.4,0.4,0.58,M14,5.7,3.6,2.1,CCCCCCN1C2=C(SC=C2)C3=C1C=C(C4=CC=C(/C=C(C#N)/C#N)C5=NSN=C45)S3,473.63,P3HT,5,3.1,1.9,CC1=CC(CCCCCC)=C(C)S1,21.1,11.6,1.82,1,1.5,DCB,NA,110,,,ChemPhysChem,10.1002/cphc.201402568
334,147,2015,1.5,1.5,5.88,0.46,0.54,M18,5.7,3.7,2,CCC[Si]1(CCC)C2=C(SC(C3=CC=C(F)C=C3)=C2)C4=C1C=C(C5=CC=C(/C=C(C#N)/C#N)C6=NSN=C56)S4,582.81,P3HT,5,3.1,1.9,CC1=CC(CCCCCC)=C(C)S1,21.1,11.6,1.82,1,1.5,DCB,NA,140,,,ChemPhysChem,10.1002/cphc.201402568
335,148,2018,7.66,7.48,14.2,0.64,0.84,PTIC,5.67,3.85,1.82,O=C(C(C=CC=C1)=C1C/2=C(C#N)/C#N)C2=C/C3=CC4=C(C(C=C(OC5(C6=CC=C(CCCCCC)C=C6)C7=CC=C(CCCCCC)C=C7)C(C8=C5C=C(/C=C9C(C(C=CC=C%10)=C%10C\9=C(C#N)\C#N)=O)S8)=C%11)=C%11OC4(C%12=CC=C(CCCCCC)C=C%12)C%13=CC=C(CCCCCC)C=C%13)S3,1347.79,PBDB-T,5.36,3.54,1.82,CC(SC1=C2C3=CC=C(CC(CC)CCCC)S3)=CC1=C(C4=CC=C(CC(CC)CCCC)S4)C5=C2C=C(S5)C6=CC=C(C7=C8C(C(C9=C(CC(CC)CCCC)SC(CC(CC)CCCC)=C9C8=O)=O)=C(C%10=CC=C(C)S%10)S7)S6,45,30,1.5,1,1,CB,NA,160,,,ChemSusChem,DOI : 10.1002/cssc.201701917
336,149,2018,3.28,3.08,5.45,0.59,1.02,BTA21,5.76,3.56,2.2,CCN(C/1=O)C(SC1=C\C2=CC=C(C3=CC(C4(C(C=CC=C5)=C5C6=C4C=CC=C6)C7C8C=CC(C(C9=NN(CCCCCCCC)N=C%109)=CC=C%10/C=C%11SC(N(C/%11=O)CC)=S)=C7)=C8C=C3)C%12=NN(CCCCCCCC)N=C2%12)=S,1119.54,P3HT,5,3.1,1.9,CC1=CC(CCCCCC)=C(C)S1,21.1,11.6,1.82,1,1,CF,CN,NA,,,Chi. J. Chem.,10.1002/cjoc.201700792
337,149,2018,0.57,0.54,2.09,0.3,0.91,BTA23,5.7,3.57,2.13,CCN(C/1=O)/C(SC1=C\C2=CC=C(C3=CC(C4(C(C=CC=C5)=C5C6=C4C=CC=C6)C7C8C=CC(C(C9=NN(CCCCCCCC)N=C%109)=CC=C%10/C=C%11S/C(N(C/%11=O)CC)=C(C#N)\C#N)=C7)=C8C=C3)C%12=NN(CCCCCCCC)N=C2%12)=C(C#N)/C#N,1183.51,P3HT,5,3.1,1.9,CC1=CC(CCCCCC)=C(C)S1,21.1,11.6,1.82,1,1,CF,CN,NA,,,Chi. J. Chem.,10.1002/cjoc.201700792
338,149,2018,0.2,0.17,1.07,0.4,0.47,BTA27,6.08,3.81,2.27,CCCCCCCCN1N=C2C(/C=C(C#N)/C#N)=CC=C(C3=CC(C4(C(C=CC=C5)=C5C6=C4C=CC=C6)C7C8C=CC(C(C9=NN(CCCCCCCC)N=C%109)=CC=C%10/C=C(C#N)\C#N)=C7)=C8C=C3)C2=N1,929.19,P3HT,5,3.1,1.9,CC1=CC(CCCCCC)=C(C)S1,21.1,11.6,1.82,1,1,CF,CN,NA,,,Chi. J. Chem.,10.1002/cjoc.201700792
339,150,2018,8.16,8.13,13.53,0.6556,0.92,SiIDT-IC,5.47,3.78,1.69,O=C(C(C=CC=C1)=C1C/2=C(C#N)\C#N)C2=C/C(S3)=CC4=C3C5=C([Si]4(CCCCCC)CCCCCC)C=C6C([Si](CCCCCC)(CCCCCC)C7=C6SC(/C=C8C(C(C=CC=C9)=C9C\8=C(C#N)/C#N)=O)=C7)=C5,1043.55,PBDB-T,5.33,3.53,1.8,CC(SC1=C2C3=CC=C(CC(CC)CCCC)S3)=CC1=C(C4=CC=C(CC(CC)CCCC)S4)C5=C2C=C(S5)C6=CC=C(C7=C8C(C(C9=C(CC(CC)CCCC)SC(CC(CC)CCCC)=C9C8=O)=O)=C(C%10=CC=C(C)S%10)S7)S6,117,58.5,2,1,1,CB,NA,110,,,Chi. J. Chem.,10.1002/cjoc.201700809
340,150,2018,8.83,8.78,16.69,0.6536,0.81,IDIC,5.53,3.91,1.62,O=C(C(C=CC=C1)=C1C/2=C(C#N)\C#N)C2=C/C(S3)=CC4=C3C5=C(C4(CCCCCC)CCCCCC)C=C6C(C(CCCCCC)(CCCCCC)C7=C6SC(/C=C8C(C(C=CC=C9)=C9C\8=C(C#N)/C#N)=O)=C7)=C5,1011.4,PBDB-T,5.33,3.53,1.8,CC(SC1=C2C3=CC=C(CC(CC)CCCC)S3)=CC1=C(C4=CC=C(CC(CC)CCCC)S4)C5=C2C=C(S5)C6=CC=C(C7=C8C(C(C9=C(CC(CC)CCCC)SC(CC(CC)CCCC)=C9C8=O)=O)=C(C%10=CC=C(C)S%10)S7)S6,117,58.5,2,1,1,CB,NA,110,,,Chi. J. Chem.,10.1002/cjoc.201700809
341,151,2019,4.69,4.69,10.06,0.5362,0.87,STIC,5.6,3.9,1.7,CC(C)(C)C(C=C1)=CC=C1O[B@]23N4C5=C6C(C=C(C7=C(CCCCCCCC)C=C(/C=C8C(C(C=CC=C9)=C9C\8=C(C#N)/C#N)=O)S7)C=C6)=C4N=C%10C%11=C(C=C(C%12=C(CCCCCCCC)C=C(/C=C%13C(C(C=CC=C%14)=C%14C\%13=C(C#N)/C#N)=O)S%12)C=C%11)C(N%103)=NC%15=[N]2C(C%16=C%15C=C(C%17=C(CCCCCCCC)C=C(/C=C%18C(C(C=CC=C%19)=C%19C\%18=C(C#N)/C#N)=O)S%17)C=C%16)=N5,1740,PBDB-T,5.33,3.53,1.8,CC(SC1=C2C3=CC=C(CC(CC)CCCC)S3)=CC1=C(C4=CC=C(CC(CC)CCCC)S4)C5=C2C=C(S5)C6=CC=C(C7=C8C(C(C9=C(CC(CC)CCCC)SC(CC(CC)CCCC)=C9C8=O)=O)=C(C%10=CC=C(C)S%10)S7)S6,117,58.5,2,1,1,CB,CN,NA,,,Dyes and Pigments,10.1016/j.dyepig.2018.07.050